 vasp.6.4.3 19Mar24 (build Jul 01 2024 12:12:31) complex                        
  
 executed on             LinuxIFC date 2024.12.04  13:37:15
 running    8 mpi-ranks, on    1 nodes
 distrk:  each k-point on    8 cores,    1 groups
 distr:  one band on NCORE=   2 cores,    4 groups


--------------------------------------------------------------------------------------------------------


 INCAR:
   SYSTEM = BaZrO3
   PREC = Accurate
   ISTART = 0
   ICHARG = 2
   LWAVE = .FALSE.
   LCHARG = .TRUE.
   ENCUT = 520
   EDIFF = 1E-6
   NELM = 100
   NELMIN = 5
   LREAL = Auto
   ISMEAR = 0
   SIGMA = 0.05
   GGA = PE
   LASPH = .TRUE.
   NSW = 100
   IBRION = 2
   ISIF = 3
   EDIFFG = -0.01
   ISPIN = 1
   LORBIT = 11
   NPAR = 4
   NCORE = 4

 POTCAR:    PAW_PBE Ba_sv 06Sep2000               
 POTCAR:    PAW_PBE Zr_sv 04Jan2005               
 POTCAR:    PAW_PBE O 08Apr2002                   
 -----------------------------------------------------------------------------
|                                                                             |
|           W    W    AA    RRRRR   N    N  II  N    N   GGGG   !!!           |
|           W    W   A  A   R    R  NN   N  II  NN   N  G    G  !!!           |
|           W    W  A    A  R    R  N N  N  II  N N  N  G       !!!           |
|           W WW W  AAAAAA  RRRRR   N  N N  II  N  N N  G  GGG   !            |
|           WW  WW  A    A  R   R   N   NN  II  N   NN  G    G                |
|           W    W  A    A  R    R  N    N  II  N    N   GGGG   !!!           |
|                                                                             |
|     The value NCORE = 4 specified in the INCAR file was overwritten,        |
|     because it was not compatible with the 8 processes available:           |
|     NCORE = 2                                                               |
|     was used instead, please check that this makes sense for your           |
|     machine.                                                                |
|                                                                             |
 -----------------------------------------------------------------------------

 POTCAR:    PAW_PBE Ba_sv 06Sep2000               
   SHA256 =  db99e82e473f9273fc04f241d4a23dc413358649e2d1724098d22351b75b003b Ba_sv/POTCAR          
   COPYR  = (c) Copyright 06Sep2000 Georg Kresse                                                    
   COPYR  = This file is part of the software VASP. Any use, copying, and all other rights are regul
   COPYR  = If you do not have a valid VASP license, you may not use, copy or distribute this file. 
   VRHFIN =Ba: 5s5p6s                                                                               
   LEXCH  = PE                                                                                      
   EATOM  =   700.8560 eV,   51.5115 Ry                                                             
                                                                                                    
   TITEL  = PAW_PBE Ba_sv 06Sep2000                                                                 
   LULTRA =        F    use ultrasoft PP ?                                                          
   IUNSCR =        1    unscreen: 0-lin 1-nonlin 2-no                                               
   RPACOR =    2.400    partial core radius                                                         
   POMASS =  137.327; ZVAL   =   10.000    mass and valenz                                          
   RCORE  =    2.800    outmost cutoff radius                                                       
   RWIGS  =    3.740; RWIGS  =    1.979    wigner-seitz radius (au A)                               
   ENMAX  =  187.181; ENMIN  =  140.386 eV                                                          
   RCLOC  =    2.516    cutoff for local pot                                                        
   LCOR   =        T    correct aug charges                                                         
   LPAW   =        T    paw PP                                                                      
   EAUG   =  351.165                                                                                
   DEXC   =    0.000                                                                                
   RMAX   =    2.865    core radius for proj-oper                                                   
   RAUG   =    1.300    factor for augmentation sphere                                              
   RDEP   =    2.976    radius for radial grids                                                     
   RDEPT  =    2.289    core radius for aug-charge                                                  
                                                                                                    
   Atomic configuration                                                                             
   13 entries                                                                                       
     n  l   j            E        occ.                                                              
     1  0  0.50    -37249.5946   2.0000                                                             
     2  0  0.50     -5887.1925   2.0000                                                             
     2  1  1.50     -5278.3977   6.0000                                                             
     3  0  0.50     -1242.7293   2.0000                                                             
     3  1  1.50     -1047.6609   6.0000                                                             
     3  2  2.50      -764.6158  10.0000                                                             
     4  0  0.50      -243.8228   2.0000                                                             
     4  1  1.50      -180.9218   6.0000                                                             
     4  2  2.50       -89.6477  10.0000                                                             
     5  0  0.50       -33.6549   2.0000                                                             
     6  0  0.50        -3.2247   1.9900                                                             
     5  1  1.50       -18.7193   6.0000                                                             
     5  2  2.50        -2.0115   0.0100                                                             
   Description                                                                                      
     l       E           TYP  RCUT    TYP  RCUT                                                     
     0    -33.6549039     23  2.800                                                                 
     0     -3.2246942     23  2.800                                                                 
     1    -18.7193050     23  2.700                                                                 
     1     27.2116520     23  2.700                                                                 
     2     -2.0115002     23  2.700                                                                 
     2      0.3057420     23  2.700                                                                 
  local pseudopotential read in
  partial core-charges read in
  partial kinetic energy density read in
  atomic valenz-charges read in
  non local Contribution for L=           0  read in
    real space projection operators read in
  non local Contribution for L=           0  read in
    real space projection operators read in
  non local Contribution for L=           1  read in
    real space projection operators read in
  non local Contribution for L=           1  read in
    real space projection operators read in
  non local Contribution for L=           2  read in
    real space projection operators read in
  non local Contribution for L=           2  read in
    real space projection operators read in
    PAW grid and wavefunctions read in
 
   number of l-projection  operators is LMAX  =           6
   number of lm-projection operators is LMMAX =          18
 
 POTCAR:    PAW_PBE Zr_sv 04Jan2005               
   SHA256 =  25aed69cb10325f9d37c5c68912b61a17387d1f8e4f1d804860ffa10c8a4bf76 Zr_sv/POTCAR          
   COPYR  = (c) Copyright 04Jan2005 Georg Kresse                                                    
   COPYR  = This file is part of the software VASP. Any use, copying, and all other rights are regul
   COPYR  = If you do not have a valid VASP license, you may not use, copy or distribute this file. 
   VRHFIN =Zr: 4s4p5s4d                                                                             
   LEXCH  = PE                                                                                      
   EATOM  =  1284.2219 eV,   94.3876 Ry                                                             
                                                                                                    
   TITEL  = PAW_PBE Zr_sv 04Jan2005                                                                 
   LULTRA =        F    use ultrasoft PP ?                                                          
   IUNSCR =        1    unscreen: 0-lin 1-nonlin 2-no                                               
   RPACOR =    2.200    partial core radius                                                         
   POMASS =   91.224; ZVAL   =   12.000    mass and valenz                                          
   RCORE  =    2.500    outmost cutoff radius                                                       
   RWIGS  =    3.070; RWIGS  =    1.625    wigner-seitz radius (au A)                               
   ENMAX  =  229.898; ENMIN  =  172.424 eV                                                          
   ICORE  =        3    local potential                                                             
   LCOR   =        T    correct aug charges                                                         
   LPAW   =        T    paw PP                                                                      
   EAUG   =  461.257                                                                                
   DEXC   =    0.000                                                                                
   RMAX   =    2.561    core radius for proj-oper                                                   
   RAUG   =    1.300    factor for augmentation sphere                                              
   RDEP   =    2.597    radius for radial grids                                                     
   RDEPT  =    2.007    core radius for aug-charge                                                  
                                                                                                    
   Atomic configuration                                                                             
   11 entries                                                                                       
     n  l   j            E        occ.                                                              
     1  0  0.50    -17820.0161   2.0000                                                             
     2  0  0.50     -2467.0882   2.0000                                                             
     2  1  1.50     -2199.6095   6.0000                                                             
     3  0  0.50      -402.4863   2.0000                                                             
     3  1  1.50      -315.3675   6.0000                                                             
     3  2  2.50      -172.4472  10.0000                                                             
     4  0  0.50       -52.4146   2.0000                                                             
     5  0  0.50        -3.8421   1.0000                                                             
     4  1  1.50       -30.5054   6.0000                                                             
     4  2  2.50        -2.3341   3.0000                                                             
     4  3  2.50        -1.3606   0.0000                                                             
   Description                                                                                      
     l       E           TYP  RCUT    TYP  RCUT                                                     
     0    -52.4145962     23  2.200                                                                 
     0     -3.8421270     23  2.500                                                                 
     1    -30.5053914     23  2.200                                                                 
     1     20.4087390     23  2.200                                                                 
     2     -2.3340816     23  2.500                                                                 
     2     -0.6120942     23  2.500                                                                 
     3     -4.0817478     23  2.500                                                                 
  local pseudopotential read in
  partial core-charges read in
  partial kinetic energy density read in
  atomic valenz-charges read in
  non local Contribution for L=           0  read in
    real space projection operators read in
  non local Contribution for L=           0  read in
    real space projection operators read in
  non local Contribution for L=           1  read in
    real space projection operators read in
  non local Contribution for L=           1  read in
    real space projection operators read in
  non local Contribution for L=           2  read in
    real space projection operators read in
  non local Contribution for L=           2  read in
    real space projection operators read in
    PAW grid and wavefunctions read in
 
   number of l-projection  operators is LMAX  =           6
   number of lm-projection operators is LMMAX =          18
 
 POTCAR:    PAW_PBE O 08Apr2002                   
   SHA256 =  818f92134a0a090dccd8ba1447fa70422a3b330e708bb4f08108d8ae51209ddf O/POTCAR              
   COPYR  = (c) Copyright 08Apr2002 Georg Kresse                                                    
   COPYR  = This file is part of the software VASP. Any use, copying, and all other rights are regul
   COPYR  = If you do not have a valid VASP license, you may not use, copy or distribute this file. 
   VRHFIN =O: s2p4                                                                                  
   LEXCH  = PE                                                                                      
   EATOM  =   432.3788 eV,   31.7789 Ry                                                             
                                                                                                    
   TITEL  = PAW_PBE O 08Apr2002                                                                     
   LULTRA =        F    use ultrasoft PP ?                                                          
   IUNSCR =        1    unscreen: 0-lin 1-nonlin 2-no                                               
   RPACOR =    1.200    partial core radius                                                         
   POMASS =   16.000; ZVAL   =    6.000    mass and valenz                                          
   RCORE  =    1.520    outmost cutoff radius                                                       
   RWIGS  =    1.550; RWIGS  =    0.820    wigner-seitz radius (au A)                               
   ENMAX  =  400.000; ENMIN  =  300.000 eV                                                          
   ICORE  =        2    local potential                                                             
   LCOR   =        T    correct aug charges                                                         
   LPAW   =        T    paw PP                                                                      
   EAUG   =  605.392                                                                                
   DEXC   =    0.000                                                                                
   RMAX   =    1.553    core radius for proj-oper                                                   
   RAUG   =    1.300    factor for augmentation sphere                                              
   RDEP   =    1.550    radius for radial grids                                                     
   RDEPT  =    1.329    core radius for aug-charge                                                  
                                                                                                    
   Atomic configuration                                                                             
    4 entries                                                                                       
     n  l   j            E        occ.                                                              
     1  0  0.50      -514.6923   2.0000                                                             
     2  0  0.50       -23.9615   2.0000                                                             
     2  1  0.50        -9.0305   4.0000                                                             
     3  2  1.50        -9.5241   0.0000                                                             
   Description                                                                                      
     l       E           TYP  RCUT    TYP  RCUT                                                     
     0    -23.9615318     23  1.200                                                                 
     0     -9.5240782     23  1.200                                                                 
     1     -9.0304911     23  1.520                                                                 
     1      8.1634956     23  1.520                                                                 
     2     -9.5240782      7  1.500                                                                 
  local pseudopotential read in
  partial core-charges read in
  partial kinetic energy density read in
  kinetic energy density of atom read in
  atomic valenz-charges read in
  non local Contribution for L=           0  read in
    real space projection operators read in
  non local Contribution for L=           0  read in
    real space projection operators read in
  non local Contribution for L=           1  read in
    real space projection operators read in
  non local Contribution for L=           1  read in
    real space projection operators read in
    PAW grid and wavefunctions read in
 
   number of l-projection  operators is LMAX  =           4
   number of lm-projection operators is LMMAX =           8
 
 -----------------------------------------------------------------------------
|                                                                             |
|               ----> ADVICE to this user running VASP <----                  |
|                                                                             |
|     You have a (more or less) 'small supercell' and for smaller cells       |
|     it is recommended to use the reciprocal-space projection scheme!        |
|     The real-space optimization is not efficient for small cells and it     |
|     is also less accurate ...                                               |
|     Therefore, set LREAL=.FALSE. in the INCAR file.                         |
|                                                                             |
 -----------------------------------------------------------------------------

 Optimization of the real space projectors (new method)

 maximal supplied QI-value         = 13.42
 optimisation between [QCUT,QGAM] = [ 11.67, 23.35] = [ 38.16,152.62] Ry 
 Optimized for a Real-space Cutoff    1.68 Angstroem

   l    n(q)    QCUT    max X(q) W(low)/X(q) W(high)/X(q)  e(spline) 
   0     12    11.673    13.244    0.27E-04    0.53E-05    0.55E-07
   0     12    11.673    14.240    0.39E-04    0.74E-05    0.11E-06
   1     11    11.673     4.828    0.65E-05    0.14E-04    0.51E-07
   1     11    11.673     3.934    0.16E-04    0.58E-04    0.38E-06
   2     11    11.673    87.714    0.23E-03    0.16E-03    0.84E-06
   2     11    11.673    59.874    0.22E-03    0.15E-03    0.81E-06
 Optimization of the real space projectors (new method)

 maximal supplied QI-value         = 15.12
 optimisation between [QCUT,QGAM] = [ 11.64, 23.28] = [ 37.95,151.78] Ry 
 Optimized for a Real-space Cutoff    1.58 Angstroem

   l    n(q)    QCUT    max X(q) W(low)/X(q) W(high)/X(q)  e(spline) 
   0     11    11.641    12.107    0.25E-04    0.86E-05    0.10E-06
   0     11    11.641     9.948    0.34E-04    0.18E-04    0.23E-06
   1     11    11.641     3.563    0.17E-04    0.12E-04    0.38E-07
   1     11    11.641     4.524    0.18E-03    0.80E-04    0.37E-06
   2     10    11.641    87.261    0.40E-04    0.20E-04    0.23E-06
   2     10    11.641    70.950    0.40E-04    0.20E-04    0.23E-06
 Optimization of the real space projectors (new method)

 maximal supplied QI-value         = 24.76
 optimisation between [QCUT,QGAM] = [ 11.64, 23.27] = [ 37.91,151.63] Ry 
 Optimized for a Real-space Cutoff    1.14 Angstroem

   l    n(q)    QCUT    max X(q) W(low)/X(q) W(high)/X(q)  e(spline) 
   0      8    11.635    20.381    0.10E-03    0.33E-03    0.24E-06
   0      8    11.635    15.268    0.11E-03    0.35E-03    0.26E-06
   1      7    11.635     5.964    0.24E-03    0.31E-03    0.30E-06
   1      7    11.635     5.382    0.22E-03    0.25E-03    0.26E-06
  PAW_PBE Ba_sv 06Sep2000               :
 energy of atom  1       EATOM= -700.8560
 kinetic energy error for atom=    0.0005 (will be added to EATOM!!)
  PAW_PBE Zr_sv 04Jan2005               :
 energy of atom  2       EATOM=-1284.2219
 kinetic energy error for atom=    0.0043 (will be added to EATOM!!)
  PAW_PBE O 08Apr2002                   :
 energy of atom  3       EATOM= -432.3788
 kinetic energy error for atom=    0.0208 (will be added to EATOM!!)
 
 
 POSCAR: Ba Zr O
  positions in cartesian coordinates
  No initial velocities read in


 exchange-correlation table for PE
   RHO(1)=    0.500       N(1)  =     2000
   RHO(2)=  100.500       N(2)  =     4000

 VTST: version 4.1, (05/19/21)

 CHAIN: initializing optimizer
 
 OPT: Using VASP Conjugate-Gradient optimizer
 CHAIN: Read ICHAIN            0
 
 POSCAR: Ba Zr O
  positions in cartesian coordinates
  No initial velocities read in
 


--------------------------------------------------------------------------------------------------------


 ion  position               nearest neighbor table
   1  0.000  0.000  0.000-   3 2.96   4 2.96   5 2.96   4 2.96   5 2.96   3 2.96   5 2.96   5 2.96
                             3 2.96   4 2.96   4 2.96   3 2.96   2 3.63   2 3.63   2 3.63   2 3.63
   2  0.500  0.500  0.500-   3 2.10   4 2.10   5 2.10   3 2.10   4 2.10   5 2.10   1 3.63   1 3.63
                             1 3.63   1 3.63   1 3.63   1 3.63   1 3.63   1 3.63
   3  0.500  0.500  0.000-   2 2.10   2 2.10   1 2.96   1 2.96   1 2.96   1 2.96
   4  0.500  0.000  0.500-   2 2.10   2 2.10   1 2.96   1 2.96   1 2.96   1 2.96
   5  0.000  0.500  0.500-   2 2.10   2 2.10   1 2.96   1 2.96   1 2.96   1 2.96
 
  LATTYP: Found a simple cubic cell.
 ALAT       =     4.1920000000
  
  Lattice vectors:
  
 A1 = (   4.1920000000,   0.0000000000,   0.0000000000)
 A2 = (   0.0000000000,   4.1920000000,   0.0000000000)
 A3 = (   0.0000000000,   0.0000000000,   4.1920000000)


Analysis of symmetry for initial positions (statically):
=====================================================================
 Subroutine PRICEL returns:
 Original cell was already a primitive cell.
 

 Routine SETGRP: Setting up the symmetry group for a 
 simple cubic supercell.


 Subroutine GETGRP returns: Found 48 space group operations
 (whereof 48 operations were pure point group operations)
 out of a pool of 48 trial point group operations.


The static configuration has the point symmetry O_h .


Analysis of symmetry for dynamics (positions and initial velocities):
=====================================================================
 Subroutine PRICEL returns:
 Original cell was already a primitive cell.
 

 Routine SETGRP: Setting up the symmetry group for a 
 simple cubic supercell.


 Subroutine GETGRP returns: Found 48 space group operations
 (whereof 48 operations were pure point group operations)
 out of a pool of 48 trial point group operations.


The dynamic configuration has the point symmetry O_h .


 Subroutine INISYM returns: Found 48 space group operations
 (whereof 48 operations are pure point group operations),
 and found     1 'primitive' translations


----------------------------------------------------------------------------------------

                                     Primitive cell                                     

  volume of cell :      73.6654

  direct lattice vectors                    reciprocal lattice vectors
     4.192000000  0.000000000  0.000000000     0.238549618  0.000000000  0.000000000
     0.000000000  4.192000000  0.000000000     0.000000000  0.238549618  0.000000000
     0.000000000  0.000000000  4.192000000     0.000000000  0.000000000  0.238549618

  length of vectors
     4.192000000  4.192000000  4.192000000     0.238549618  0.238549618  0.238549618

  position of ions in fractional coordinates (direct lattice)
     0.000000000  0.000000000  0.000000000
     0.500000000  0.500000000  0.500000000
     0.500000000  0.500000000  0.000000000
     0.500000000  0.000000000  0.500000000
     0.000000000  0.500000000  0.500000000

  ion indices of the primitive-cell ions
   primitive index   ion index
                 1           1
                 2           2
                 3           3
                 4           4
                 5           5

----------------------------------------------------------------------------------------

 
 
 KPOINTS: Automatic mesh                          

Automatic generation of k-mesh.
 Grid dimensions read from file:
 generate k-points for:    6    6    6

 Generating k-lattice:

  Cartesian coordinates                     Fractional coordinates (reciprocal lattice)
     0.039758270  0.000000000  0.000000000     0.166666667  0.000000000  0.000000000
     0.000000000  0.039758270  0.000000000     0.000000000  0.166666667  0.000000000
     0.000000000  0.000000000  0.039758270     0.000000000  0.000000000  0.166666667

  Length of vectors
     0.039758270  0.039758270  0.039758270

  Shift w.r.t. Gamma in fractional coordinates (k-lattice)
     0.000000000  0.000000000  0.000000000

 
 Subroutine IBZKPT returns following result:
 ===========================================
 
 Found     20 irreducible k-points:
 
 Following reciprocal coordinates:
            Coordinates               Weight
  0.000000  0.000000  0.000000      1.000000
  0.166667  0.000000  0.000000      6.000000
  0.333333  0.000000  0.000000      6.000000
  0.500000  0.000000  0.000000      3.000000
  0.166667  0.166667  0.000000     12.000000
  0.333333  0.166667  0.000000     24.000000
  0.500000  0.166667  0.000000     12.000000
  0.333333  0.333333  0.000000     12.000000
  0.500000  0.333333  0.000000     12.000000
  0.500000  0.500000  0.000000      3.000000
  0.166667  0.166667  0.166667      8.000000
  0.333333  0.166667  0.166667     24.000000
  0.500000  0.166667  0.166667     12.000000
  0.333333  0.333333  0.166667     24.000000
  0.500000  0.333333  0.166667     24.000000
  0.500000  0.500000  0.166667      6.000000
  0.333333  0.333333  0.333333      8.000000
  0.500000  0.333333  0.333333     12.000000
  0.500000  0.500000  0.333333      6.000000
  0.500000  0.500000  0.500000      1.000000
 
 Following cartesian coordinates:
            Coordinates               Weight
  0.000000  0.000000  0.000000      1.000000
  0.039758  0.000000  0.000000      6.000000
  0.079517  0.000000  0.000000      6.000000
  0.119275  0.000000  0.000000      3.000000
  0.039758  0.039758  0.000000     12.000000
  0.079517  0.039758  0.000000     24.000000
  0.119275  0.039758  0.000000     12.000000
  0.079517  0.079517  0.000000     12.000000
  0.119275  0.079517  0.000000     12.000000
  0.119275  0.119275  0.000000      3.000000
  0.039758  0.039758  0.039758      8.000000
  0.079517  0.039758  0.039758     24.000000
  0.119275  0.039758  0.039758     12.000000
  0.079517  0.079517  0.039758     24.000000
  0.119275  0.079517  0.039758     24.000000
  0.119275  0.119275  0.039758      6.000000
  0.079517  0.079517  0.079517      8.000000
  0.119275  0.079517  0.079517     12.000000
  0.119275  0.119275  0.079517      6.000000
  0.119275  0.119275  0.119275      1.000000
 


--------------------------------------------------------------------------------------------------------




 Dimension of arrays:
   k-points           NKPTS =     20   k-points in BZ     NKDIM =     20   number of bands    NBANDS=     24
   number of dos      NEDOS =    301   number of ions     NIONS =      5
   non local maximal  LDIM  =      6   non local SUM 2l+1 LMDIM =     18
   total plane-waves  NPLWV =  32768
   max r-space proj   IRMAX =   8822   max aug-charges    IRDMAX=  28041
   dimension x,y,z NGX =    32 NGY =   32 NGZ =   32
   dimension x,y,z NGXF=    64 NGYF=   64 NGZF=   64
   support grid    NGXF=    64 NGYF=   64 NGZF=   64
   ions per type =               1   1   3
   NGX,Y,Z   is equivalent  to a cutoff of  12.69, 12.69, 12.69 a.u.
   NGXF,Y,Z  is equivalent  to a cutoff of  25.38, 25.38, 25.38 a.u.

 SYSTEM =  BaZrO3                                  
 POSCAR =  Ba Zr O                                 

 Startparameter for this run:
   NWRITE =      2    write-flag & timer
   PREC   = accura    normal or accurate (medium, high low for compatibility)
   ISTART =      0    job   : 0-new  1-cont  2-samecut
   ICHARG =      2    charge: 1-file 2-atom 10-const
   ISPIN  =      1    spin polarized calculation?
   LNONCOLLINEAR =      F non collinear calculations
   LSORBIT =      F    spin-orbit coupling
   INIWAV =      1    electr: 0-lowe 1-rand  2-diag
   LASPH  =      T    aspherical Exc in radial PAW
 Electronic Relaxation 1
   ENCUT  =  520.0 eV  38.22 Ry    6.18 a.u.   7.79  7.79  7.79*2*pi/ulx,y,z
   ENINI  =  520.0     initial cutoff
   ENAUG  =  605.4 eV  augmentation charge cutoff
   NELM   =    100;   NELMIN=  5; NELMDL= -5     # of ELM steps 
   EDIFF  = 0.1E-05   stopping-criterion for ELM
   LREAL  =      T    real-space projection
   NLSPLINE    = F    spline interpolate recip. space projectors
   LCOMPAT=      F    compatible to vasp.4.4
   GGA_COMPAT  = T    GGA compatible to vasp.4.4-vasp.4.6
   LMAXPAW     = -100 max onsite density
   LMAXMIX     =    2 max onsite mixed and CHGCAR
   VOSKOWN=      0    Vosko Wilk Nusair interpolation
   ROPT   =   -0.00025  -0.00025  -0.00025
 Ionic relaxation
   EDIFFG = -.1E-01   stopping-criterion for IOM
   NSW    =    100    number of steps for IOM
   NBLOCK =      1;   KBLOCK =    100    inner block; outer block 
   IBRION =      2    ionic relax: 0-MD 1-quasi-New 2-CG
   NFREE  =      1    steps in history (QN), initial steepest desc. (CG)
   ISIF   =      3    stress and relaxation
   IWAVPR =     11    prediction:  0-non 1-charg 2-wave 3-comb
   ISYM   =      2    0-nonsym 1-usesym 2-fastsym
   LCORR  =      T    Harris-Foulkes like correction to forces

   POTIM  = 0.5000    time-step for ionic-motion
   TEIN   =    0.0    initial temperature
   TEBEG  =    0.0;   TEEND  =   0.0 temperature during run
   SMASS  =  -3.00    Nose mass-parameter (am)
   estimated Nose-frequenzy (Omega)   =  0.10E-29 period in steps = 0.13E+47 mass=  -0.402E-27a.u.
   SCALEE = 1.0000    scale energy and forces
   NPACO  =    256;   APACO  = 10.0  distance and # of slots for P.C.
   PSTRESS=    0.0 pullay stress

  Mass of Ions in am
   POMASS = 137.33 91.22 16.00
  Ionic Valenz
   ZVAL   =  10.00 12.00  6.00
  Atomic Wigner-Seitz radii
   RWIGS  =  -1.00 -1.00 -1.00
  virtual crystal weights 
   VCA    =   1.00  1.00  1.00
   NELECT =      40.0000    total number of electrons
   NUPDOWN=      -1.0000    fix difference up-down

 DOS related values:
   EMIN   =  10.00;   EMAX   =-10.00  energy-range for DOS
   EFERMI =   0.00;   METHOD = LEGACY      
   ISMEAR =     0;   SIGMA  =   0.05  broadening in eV -4-tet -1-fermi 0-gaus

 Electronic relaxation 2 (details)
   IALGO  =     38    algorithm
   LDIAG  =      T    sub-space diagonalisation (order eigenvalues)
   LSUBROT=      F    optimize rotation matrix (better conditioning)
   TURBO    =      0    0=normal 1=particle mesh
   IRESTART =      0    0=no restart 2=restart with 2 vectors
   NREBOOT  =      0    no. of reboots
   NMIN     =      0    reboot dimension
   EREF     =   0.00    reference energy to select bands
   IMIX   =      4    mixing-type and parameters
     AMIX     =   0.40;   BMIX     =  1.00
     AMIX_MAG =   1.60;   BMIX_MAG =  1.00
     AMIN     =   0.10
     WC   =   100.;   INIMIX=   1;  MIXPRE=   1;  MAXMIX= -45

 Intra band minimization:
   WEIMIN = 0.0010     energy-eigenvalue tresh-hold
   EBREAK =  0.10E-07  absolut break condition
   DEPER  =   0.30     relativ break condition  

   TIME   =   0.40     timestep for ELM

  volume/ion in A,a.u.               =      14.73        99.42
  Fermi-wavevector in a.u.,A,eV,Ry     =   1.335591  2.523901 24.270125  1.783804
  Thomas-Fermi vector in A             =   2.464284
 
 Write flags
   LWAVE        =      F    write WAVECAR
   LDOWNSAMPLE  =      F    k-point downsampling of WAVECAR
   LCHARG       =      T    write CHGCAR
   LVTOT        =      F    write LOCPOT, total local potential
   LVHAR        =      F    write LOCPOT, Hartree potential only
   WRT_POTENTIAL= false  ! write potential to hdf5 file
   LELF         =      F    write electronic localiz. function (ELF)
   LORBIT       =     11    0 simple, 1 ext, 2 COOP (PROOUT), +10 PAW based schemes


 Dipole corrections
   LMONO      =      F    monopole corrections only (constant potential shift)
   LDIPOL     =      F    correct potential (dipole corrections)
   IDIPOL     =      0    1-x, 2-y, 3-z, 4-all directions 
   EPSILON    =  1.0000000 bulk dielectric constant
   LVACPOTAV  =      F  vacuum potentials using an averaging scheme for the charge density
   VACPOTFLAT =  0.1000000 required flatness to determine vacuum potential
 Exchange correlation treatment:
   GGA     = PE    functional components
   XC_C    = 1    coefficients multiplying the functional components
   LIBXC   =     F    Libxc                    
   VOSKOWN =     0    Vosko Wilk Nusair interpolation
   LHFCALC =     F    Hartree Fock is set to
   LHFONE  =     F    Hartree Fock one center treatment
   AEXX    =    0.0000 exact exchange contribution

 Parameters of functionals:
   PE:
     No parameter
 
 Van der Waals corrections
   IVDW    =     0    specifies the selected vdW correction

 Linear response parameters
   LEPSILON=     F    determine dielectric tensor
   LRPA    =     F    only Hartree local field effects (RPA)
   LNABLA  =     F    use nabla operator in PAW spheres
   LVEL    =     F    velocity operator in full k-point grid
   CSHIFT  =0.1000    complex shift for real part using Kramers Kronig
   OMEGAMAX=  -1.0    maximum frequency
   DEG_THRESHOLD= 0.2000000E-02 threshold for treating states as degnerate
   RTIME   =   -0.100 relaxation time in fs
  (WPLASMAI=    0.000 imaginary part of plasma frequency in eV, 0.658/RTIME)
   DFIELD  = 0.0000000 0.0000000 0.0000000 field for delta impulse in time
 
  Optional k-point grid parameters
   LKPOINTS_OPT  =     F    use optional k-point grid
   KPOINTS_OPT_MODE=     1    mode for optional k-point grid
 
 Orbital magnetization related:
   ORBITALMAG=     F  switch on orbital magnetization
   LCHIMAG   =     F  perturbation theory with respect to B field
   DQ        =  0.001000  dq finite difference perturbation B field
   LLRAUG    =     F  two centre corrections for induced B field
   LBONE     =     F  B-component reconstruction in AE one-centre
   LVGVCALC  =     T  calculate vGv susceptibility
   LVGVAPPL  =     F  apply vGv susceptibility instead of pGv for G=0

 Random number generation:
   RANDOM_GENERATOR = DEFAULT
   PCG_SEED         = not used


--------------------------------------------------------------------------------------------------------


 conjugate gradient relaxation of ions
 charge density and potential will be updated during run
 non-spin polarized calculation
 Variant of blocked Davidson
 Davidson routine will perform the subspace rotation
 perform sub-space diagonalisation
    after iterative eigenvector-optimisation
 modified Broyden-mixing scheme, WC =      100.0
 initial mixing is a Kerker type mixing with AMIX =  0.4000 and BMIX =      1.0000
 Hartree-type preconditioning will be used
 using additional bands            4
 real space projection scheme for non local part
 use partial core corrections
 calculate Harris-corrections to forces 
   (improved forces if not selfconsistent)
 use gradient corrections 
 use of overlap-Matrix (Vanderbilt PP)
 Gauss-broadening in eV      SIGMA  =   0.05


--------------------------------------------------------------------------------------------------------


  energy-cutoff  :      520.00
  volume of cell :       73.67
      direct lattice vectors                 reciprocal lattice vectors
     4.192000000  0.000000000  0.000000000     0.238549618  0.000000000  0.000000000
     0.000000000  4.192000000  0.000000000     0.000000000  0.238549618  0.000000000
     0.000000000  0.000000000  4.192000000     0.000000000  0.000000000  0.238549618

  length of vectors
     4.192000000  4.192000000  4.192000000     0.238549618  0.238549618  0.238549618


 
 k-points in units of 2pi/SCALE and weight: Automatic mesh                          
   0.00000000  0.00000000  0.00000000       0.005
   0.03975827  0.00000000  0.00000000       0.028
   0.07951654  0.00000000  0.00000000       0.028
   0.11927481  0.00000000  0.00000000       0.014
   0.03975827  0.03975827  0.00000000       0.056
   0.07951654  0.03975827  0.00000000       0.111
   0.11927481  0.03975827  0.00000000       0.056
   0.07951654  0.07951654  0.00000000       0.056
   0.11927481  0.07951654  0.00000000       0.056
   0.11927481  0.11927481  0.00000000       0.014
   0.03975827  0.03975827  0.03975827       0.037
   0.07951654  0.03975827  0.03975827       0.111
   0.11927481  0.03975827  0.03975827       0.056
   0.07951654  0.07951654  0.03975827       0.111
   0.11927481  0.07951654  0.03975827       0.111
   0.11927481  0.11927481  0.03975827       0.028
   0.07951654  0.07951654  0.07951654       0.037
   0.11927481  0.07951654  0.07951654       0.056
   0.11927481  0.11927481  0.07951654       0.028
   0.11927481  0.11927481  0.11927481       0.005
 
 k-points in reciprocal lattice and weights: Automatic mesh                          
   0.00000000  0.00000000  0.00000000       0.005
   0.16666667  0.00000000  0.00000000       0.028
   0.33333333  0.00000000  0.00000000       0.028
   0.50000000  0.00000000  0.00000000       0.014
   0.16666667  0.16666667  0.00000000       0.056
   0.33333333  0.16666667  0.00000000       0.111
   0.50000000  0.16666667  0.00000000       0.056
   0.33333333  0.33333333  0.00000000       0.056
   0.50000000  0.33333333  0.00000000       0.056
   0.50000000  0.50000000  0.00000000       0.014
   0.16666667  0.16666667  0.16666667       0.037
   0.33333333  0.16666667  0.16666667       0.111
   0.50000000  0.16666667  0.16666667       0.056
   0.33333333  0.33333333  0.16666667       0.111
   0.50000000  0.33333333  0.16666667       0.111
   0.50000000  0.50000000  0.16666667       0.028
   0.33333333  0.33333333  0.33333333       0.037
   0.50000000  0.33333333  0.33333333       0.056
   0.50000000  0.50000000  0.33333333       0.028
   0.50000000  0.50000000  0.50000000       0.005
 
 position of ions in fractional coordinates (direct lattice) 
   0.00000000  0.00000000  0.00000000
   0.50000000  0.50000000  0.50000000
   0.50000000  0.50000000  0.00000000
   0.50000000  0.00000000  0.50000000
   0.00000000  0.50000000  0.50000000
 
 position of ions in cartesian coordinates  (Angst):
   0.00000000  0.00000000  0.00000000
   2.09600000  2.09600000  2.09600000
   2.09600000  2.09600000  0.00000000
   2.09600000  0.00000000  2.09600000
   0.00000000  2.09600000  2.09600000
 


--------------------------------------------------------------------------------------------------------


 k-point     1 :   0.0000 0.0000 0.0000  plane waves:    1935
 k-point     2 :   0.1667 0.0000 0.0000  plane waves:    1983
 k-point     3 :   0.3333 0.0000 0.0000  plane waves:    1972
 k-point     4 :   0.5000 0.0000 0.0000  plane waves:    1984
 k-point     5 :   0.1667 0.1667 0.0000  plane waves:    1991
 k-point     6 :   0.3333 0.1667 0.0000  plane waves:    1969
 k-point     7 :   0.5000 0.1667 0.0000  plane waves:    1984
 k-point     8 :   0.3333 0.3333 0.0000  plane waves:    2003
 k-point     9 :   0.5000 0.3333 0.0000  plane waves:    1996
 k-point    10 :   0.5000 0.5000 0.0000  plane waves:    2000
 k-point    11 :   0.1667 0.1667 0.1667  plane waves:    1980
 k-point    12 :   0.3333 0.1667 0.1667  plane waves:    1980
 k-point    13 :   0.5000 0.1667 0.1667  plane waves:    1974
 k-point    14 :   0.3333 0.3333 0.1667  plane waves:    1990
 k-point    15 :   0.5000 0.3333 0.1667  plane waves:    1996
 k-point    16 :   0.5000 0.5000 0.1667  plane waves:    2008
 k-point    17 :   0.3333 0.3333 0.3333  plane waves:    1980
 k-point    18 :   0.5000 0.3333 0.3333  plane waves:    1972
 k-point    19 :   0.5000 0.5000 0.3333  plane waves:    1964
 k-point    20 :   0.5000 0.5000 0.5000  plane waves:    2008

 maximum and minimum number of plane-waves per node :      1006      959

 maximum number of plane-waves:      2008
 maximum index in each direction: 
   IXMAX=    7   IYMAX=    7   IZMAX=    7
   IXMIN=   -8   IYMIN=   -8   IZMIN=   -8


 real space projection operators:
  total allocation   :       2694.38 KBytes
  max/ min on nodes  :       1349.25       1345.12


 parallel 3D FFT for wavefunctions:
    minimum data exchange during FFTs selected (reduces bandwidth)
 parallel 3D FFT for charge:
    minimum data exchange during FFTs selected (reduces bandwidth)


 total amount of memory used by VASP MPI-rank0    38868. kBytes
=======================================================================

   base      :      30000. kBytes
   nonlr-proj:       2391. kBytes
   fftplans  :       1618. kBytes
   grid      :       2809. kBytes
   one-center:         46. kBytes
   wavefun   :       2004. kBytes
 
     INWAV:  cpu time      0.0000: real time      0.0000
 Broyden mixing: mesh for mixing (old mesh)
   NGX = 15   NGY = 15   NGZ = 15
  (NGX  = 64   NGY  = 64   NGZ  = 64)
  gives a total of   3375 points

 initial charge density was supplied:
 charge density of overlapping atoms calculated
 number of electron      40.0000000 magnetization 
 keeping initial charge density in first step


--------------------------------------------------------------------------------------------------------


 Maximum index for non-local projection operator         4189
 Maximum index for augmentation-charges         3449 (set IRDMAX)


--------------------------------------------------------------------------------------------------------


 First call to EWALD:  gamma=   0.423
 Maximum number of real-space cells 3x 3x 3
 Maximum number of reciprocal cells 3x 3x 3

    FEWALD:  cpu time      0.0030: real time      0.0037


--------------------------------------- Ionic step        1  -------------------------------------------




--------------------------------------- Iteration      1(   1)  ---------------------------------------


    POTLOK:  cpu time      0.0089: real time      0.0123
    SETDIJ:  cpu time      0.0685: real time      0.0689
     EDDAV:  cpu time      0.1957: real time      0.2708
       DOS:  cpu time      0.0008: real time      0.0022
    --------------------------------------------
      LOOP:  cpu time      0.2739: real time      0.3542

 eigenvalue-minimisations  :   960
 total energy-change (2. order) : 0.3267187E+03  (-0.2248786E+04)
 number of electron      40.0000000 magnetization 
 augmentation part       40.0000000 magnetization 

 Free energy of the ion-electron system (eV)
  ---------------------------------------------------
  alpha Z        PSCENC =       240.34259355
  Ewald energy   TEWEN  =     -2693.37944630
  -Hartree energ DENC   =      -682.79388567
  -exchange      EXHF   =         0.00000000
  -V(xc)+E(xc)   XCENC  =       159.34887639
  PAW double counting   =      2561.05225630    -2544.85325127
  entropy T*S    EENTRO =        -0.00181669
  eigenvalues    EBANDS =         4.85632661
  atomic energy  EATOM  =      3282.14706587
  Solvation  Ediel_sol  =         0.00000000
  ---------------------------------------------------
  free energy    TOTEN  =       326.71871880 eV

  energy without entropy =      326.72053549  energy(sigma->0) =      326.71962714


--------------------------------------------------------------------------------------------------------




--------------------------------------- Iteration      1(   2)  ---------------------------------------


     EDDAV:  cpu time      0.2172: real time      0.2188
       DOS:  cpu time      0.0001: real time      0.0001
    --------------------------------------------
      LOOP:  cpu time      0.2173: real time      0.2189

 eigenvalue-minimisations  :  1208
 total energy-change (2. order) :-0.3555511E+03  (-0.3478068E+03)
 number of electron      40.0000000 magnetization 
 augmentation part       40.0000000 magnetization 

 Free energy of the ion-electron system (eV)
  ---------------------------------------------------
  alpha Z        PSCENC =       240.34259355
  Ewald energy   TEWEN  =     -2693.37944630
  -Hartree energ DENC   =      -682.79388567
  -exchange      EXHF   =         0.00000000
  -V(xc)+E(xc)   XCENC  =       159.34887639
  PAW double counting   =      2561.05225630    -2544.85325127
  entropy T*S    EENTRO =        -0.00000000
  eigenvalues    EBANDS =      -350.69655336
  atomic energy  EATOM  =      3282.14706587
  Solvation  Ediel_sol  =         0.00000000
  ---------------------------------------------------
  free energy    TOTEN  =       -28.83234448 eV

  energy without entropy =      -28.83234448  energy(sigma->0) =      -28.83234448


--------------------------------------------------------------------------------------------------------




--------------------------------------- Iteration      1(   3)  ---------------------------------------


     EDDAV:  cpu time      0.2737: real time      0.2755
       DOS:  cpu time      0.0001: real time      0.0001
    --------------------------------------------
      LOOP:  cpu time      0.2738: real time      0.2756

 eigenvalue-minimisations  :  1600
 total energy-change (2. order) :-0.1999388E+02  (-0.1997434E+02)
 number of electron      40.0000000 magnetization 
 augmentation part       40.0000000 magnetization 

 Free energy of the ion-electron system (eV)
  ---------------------------------------------------
  alpha Z        PSCENC =       240.34259355
  Ewald energy   TEWEN  =     -2693.37944630
  -Hartree energ DENC   =      -682.79388567
  -exchange      EXHF   =         0.00000000
  -V(xc)+E(xc)   XCENC  =       159.34887639
  PAW double counting   =      2561.05225630    -2544.85325127
  entropy T*S    EENTRO =        -0.00000000
  eigenvalues    EBANDS =      -370.69043800
  atomic energy  EATOM  =      3282.14706587
  Solvation  Ediel_sol  =         0.00000000
  ---------------------------------------------------
  free energy    TOTEN  =       -48.82622912 eV

  energy without entropy =      -48.82622912  energy(sigma->0) =      -48.82622912


--------------------------------------------------------------------------------------------------------




--------------------------------------- Iteration      1(   4)  ---------------------------------------


     EDDAV:  cpu time      0.2435: real time      0.2452
       DOS:  cpu time      0.0001: real time      0.0001
    --------------------------------------------
      LOOP:  cpu time      0.2436: real time      0.2453

 eigenvalue-minimisations  :  1400
 total energy-change (2. order) :-0.4279957E+00  (-0.4279079E+00)
 number of electron      40.0000000 magnetization 
 augmentation part       40.0000000 magnetization 

 Free energy of the ion-electron system (eV)
  ---------------------------------------------------
  alpha Z        PSCENC =       240.34259355
  Ewald energy   TEWEN  =     -2693.37944630
  -Hartree energ DENC   =      -682.79388567
  -exchange      EXHF   =         0.00000000
  -V(xc)+E(xc)   XCENC  =       159.34887639
  PAW double counting   =      2561.05225630    -2544.85325127
  entropy T*S    EENTRO =        -0.00000000
  eigenvalues    EBANDS =      -371.11843374
  atomic energy  EATOM  =      3282.14706587
  Solvation  Ediel_sol  =         0.00000000
  ---------------------------------------------------
  free energy    TOTEN  =       -49.25422486 eV

  energy without entropy =      -49.25422486  energy(sigma->0) =      -49.25422486


--------------------------------------------------------------------------------------------------------




--------------------------------------- Iteration      1(   5)  ---------------------------------------


     EDDAV:  cpu time      0.2379: real time      0.2396
       DOS:  cpu time      0.0001: real time      0.0001
    CHARGE:  cpu time      0.0129: real time      0.0135
    MIXING:  cpu time      0.0006: real time      0.0011
    --------------------------------------------
      LOOP:  cpu time      0.2515: real time      0.2543

 eigenvalue-minimisations  :  1368
 total energy-change (2. order) :-0.8206864E-02  (-0.8206710E-02)
 number of electron      39.9999999 magnetization 
 augmentation part        1.1354930 magnetization 

 Broyden mixing:
  rms(total) = 0.28882E+01    rms(broyden)= 0.28879E+01
  rms(prec ) = 0.46005E+01
  weight for this iteration     100.00

 Free energy of the ion-electron system (eV)
  ---------------------------------------------------
  alpha Z        PSCENC =       240.34259355
  Ewald energy   TEWEN  =     -2693.37944630
  -Hartree energ DENC   =      -682.79388567
  -exchange      EXHF   =         0.00000000
  -V(xc)+E(xc)   XCENC  =       159.34887639
  PAW double counting   =      2561.05225630    -2544.85325127
  entropy T*S    EENTRO =        -0.00000000
  eigenvalues    EBANDS =      -371.12664060
  atomic energy  EATOM  =      3282.14706587
  Solvation  Ediel_sol  =         0.00000000
  ---------------------------------------------------
  free energy    TOTEN  =       -49.26243172 eV

  energy without entropy =      -49.26243172  energy(sigma->0) =      -49.26243172


--------------------------------------------------------------------------------------------------------




--------------------------------------- Iteration      1(   6)  ---------------------------------------


    POTLOK:  cpu time      0.0089: real time      0.0092
    SETDIJ:  cpu time      0.0678: real time      0.0682
     EDDAV:  cpu time      0.2131: real time      0.2144
       DOS:  cpu time      0.0001: real time      0.0001
    CHARGE:  cpu time      0.0119: real time      0.0120
    MIXING:  cpu time      0.0010: real time      0.0058
    --------------------------------------------
      LOOP:  cpu time      0.3029: real time      0.3097

 eigenvalue-minimisations  :  1200
 total energy-change (2. order) : 0.7540741E+01  (-0.4755605E+01)
 number of electron      40.0000000 magnetization 
 augmentation part        0.6291812 magnetization 

 Broyden mixing:
  rms(total) = 0.13060E+01    rms(broyden)= 0.13056E+01
  rms(prec ) = 0.15134E+01
  weight for this iteration     100.00

 eigenvalues of (default mixing * dielectric matrix)
  average eigenvalue GAMMA=   1.1273
  1.1273

 Free energy of the ion-electron system (eV)
  ---------------------------------------------------
  alpha Z        PSCENC =       240.34259355
  Ewald energy   TEWEN  =     -2693.37944630
  -Hartree energ DENC   =      -721.16360792
  -exchange      EXHF   =         0.00000000
  -V(xc)+E(xc)   XCENC  =       162.45385558
  PAW double counting   =      3303.08078804    -3291.55197209
  entropy T*S    EENTRO =        -0.00000000
  eigenvalues    EBANDS =      -323.65096719
  atomic energy  EATOM  =      3282.14706587
  Solvation  Ediel_sol  =         0.00000000
  ---------------------------------------------------
  free energy    TOTEN  =       -41.72169045 eV

  energy without entropy =      -41.72169045  energy(sigma->0) =      -41.72169045


--------------------------------------------------------------------------------------------------------




--------------------------------------- Iteration      1(   7)  ---------------------------------------


    POTLOK:  cpu time      0.0085: real time      0.0088
    SETDIJ:  cpu time      0.0676: real time      0.0680
     EDDAV:  cpu time      0.2452: real time      0.2466
       DOS:  cpu time      0.0001: real time      0.0001
    CHARGE:  cpu time      0.0119: real time      0.0119
    MIXING:  cpu time      0.0005: real time      0.0012
    --------------------------------------------
      LOOP:  cpu time      0.3337: real time      0.3365

 eigenvalue-minimisations  :  1424
 total energy-change (2. order) : 0.1994804E-01  (-0.3385239E+00)
 number of electron      40.0000000 magnetization 
 augmentation part        0.4369573 magnetization 

 Broyden mixing:
  rms(total) = 0.76531E+00    rms(broyden)= 0.76531E+00
  rms(prec ) = 0.85365E+00
  weight for this iteration     100.00

 eigenvalues of (default mixing * dielectric matrix)
  average eigenvalue GAMMA=   1.5411
  0.8863  2.1960

 Free energy of the ion-electron system (eV)
  ---------------------------------------------------
  alpha Z        PSCENC =       240.34259355
  Ewald energy   TEWEN  =     -2693.37944630
  -Hartree energ DENC   =      -710.52892305
  -exchange      EXHF   =         0.00000000
  -V(xc)+E(xc)   XCENC  =       161.72888219
  PAW double counting   =      3784.49780107    -3773.22984915
  entropy T*S    EENTRO =        -0.00000000
  eigenvalues    EBANDS =      -333.27986660
  atomic energy  EATOM  =      3282.14706587
  Solvation  Ediel_sol  =         0.00000000
  ---------------------------------------------------
  free energy    TOTEN  =       -41.70174241 eV

  energy without entropy =      -41.70174241  energy(sigma->0) =      -41.70174241


--------------------------------------------------------------------------------------------------------




--------------------------------------- Iteration      1(   8)  ---------------------------------------


    POTLOK:  cpu time      0.0084: real time      0.0087
    SETDIJ:  cpu time      0.0675: real time      0.0678
     EDDAV:  cpu time      0.2268: real time      0.2280
       DOS:  cpu time      0.0002: real time      0.0002
    CHARGE:  cpu time      0.0118: real time      0.0119
    MIXING:  cpu time      0.0004: real time      0.0009
    --------------------------------------------
      LOOP:  cpu time      0.3151: real time      0.3176

 eigenvalue-minimisations  :  1288
 total energy-change (2. order) : 0.1394989E-01  (-0.3136794E-01)
 number of electron      40.0000000 magnetization 
 augmentation part        0.4552992 magnetization 

 Broyden mixing:
  rms(total) = 0.67165E-01    rms(broyden)= 0.67093E-01
  rms(prec ) = 0.14032E+00
  weight for this iteration     100.00

 eigenvalues of (default mixing * dielectric matrix)
  average eigenvalue GAMMA=   1.3592
  2.1290  0.9743  0.9743

 Free energy of the ion-electron system (eV)
  ---------------------------------------------------
  alpha Z        PSCENC =       240.34259355
  Ewald energy   TEWEN  =     -2693.37944630
  -Hartree energ DENC   =      -706.70135766
  -exchange      EXHF   =         0.00000000
  -V(xc)+E(xc)   XCENC  =       161.52796431
  PAW double counting   =      4509.87153605    -4497.57520736
  entropy T*S    EENTRO =        -0.00000000
  eigenvalues    EBANDS =      -337.92094099
  atomic energy  EATOM  =      3282.14706587
  Solvation  Ediel_sol  =         0.00000000
  ---------------------------------------------------
  free energy    TOTEN  =       -41.68779252 eV

  energy without entropy =      -41.68779252  energy(sigma->0) =      -41.68779252


--------------------------------------------------------------------------------------------------------




--------------------------------------- Iteration      1(   9)  ---------------------------------------


    POTLOK:  cpu time      0.0086: real time      0.0088
    SETDIJ:  cpu time      0.0675: real time      0.0678
     EDDAV:  cpu time      0.2310: real time      0.2323
       DOS:  cpu time      0.0001: real time      0.0001
    CHARGE:  cpu time      0.0118: real time      0.0119
    MIXING:  cpu time      0.0003: real time      0.0003
    --------------------------------------------
      LOOP:  cpu time      0.3193: real time      0.3213

 eigenvalue-minimisations  :  1328
 total energy-change (2. order) : 0.1152237E-02  (-0.5541509E-02)
 number of electron      40.0000000 magnetization 
 augmentation part        0.4193699 magnetization 

 Broyden mixing:
  rms(total) = 0.44885E-01    rms(broyden)= 0.44877E-01
  rms(prec ) = 0.79183E-01
  weight for this iteration     100.00

 eigenvalues of (default mixing * dielectric matrix)
  average eigenvalue GAMMA=   1.6638
  0.9217  0.9217  2.7843  2.0274

 Free energy of the ion-electron system (eV)
  ---------------------------------------------------
  alpha Z        PSCENC =       240.34259355
  Ewald energy   TEWEN  =     -2693.37944630
  -Hartree energ DENC   =      -709.36739274
  -exchange      EXHF   =         0.00000000
  -V(xc)+E(xc)   XCENC  =       161.69376451
  PAW double counting   =      4546.32893294    -4533.79293481
  entropy T*S    EENTRO =        -0.00000000
  eigenvalues    EBANDS =      -335.65922333
  atomic energy  EATOM  =      3282.14706587
  Solvation  Ediel_sol  =         0.00000000
  ---------------------------------------------------
  free energy    TOTEN  =       -41.68664029 eV

  energy without entropy =      -41.68664029  energy(sigma->0) =      -41.68664029


--------------------------------------------------------------------------------------------------------




--------------------------------------- Iteration      1(  10)  ---------------------------------------


    POTLOK:  cpu time      0.0086: real time      0.0089
    SETDIJ:  cpu time      0.0675: real time      0.0678
     EDDAV:  cpu time      0.2306: real time      0.2319
       DOS:  cpu time      0.0001: real time      0.0001
    CHARGE:  cpu time      0.0118: real time      0.0119
    MIXING:  cpu time      0.0003: real time      0.0003
    --------------------------------------------
      LOOP:  cpu time      0.3188: real time      0.3208

 eigenvalue-minimisations  :  1320
 total energy-change (2. order) :-0.1758127E-02  (-0.1518973E-02)
 number of electron      40.0000000 magnetization 
 augmentation part        0.4210352 magnetization 

 Broyden mixing:
  rms(total) = 0.24007E-01    rms(broyden)= 0.24005E-01
  rms(prec ) = 0.35795E-01
  weight for this iteration     100.00

 eigenvalues of (default mixing * dielectric matrix)
  average eigenvalue GAMMA=   1.4349
  2.6040  1.6847  1.1014  0.8923  0.8923

 Free energy of the ion-electron system (eV)
  ---------------------------------------------------
  alpha Z        PSCENC =       240.34259355
  Ewald energy   TEWEN  =     -2693.37944630
  -Hartree energ DENC   =      -711.14387043
  -exchange      EXHF   =         0.00000000
  -V(xc)+E(xc)   XCENC  =       161.77645713
  PAW double counting   =      4598.43714351    -4585.17097715
  entropy T*S    EENTRO =        -0.00000000
  eigenvalues    EBANDS =      -334.69736460
  atomic energy  EATOM  =      3282.14706587
  Solvation  Ediel_sol  =         0.00000000
  ---------------------------------------------------
  free energy    TOTEN  =       -41.68839841 eV

  energy without entropy =      -41.68839841  energy(sigma->0) =      -41.68839841


--------------------------------------------------------------------------------------------------------




--------------------------------------- Iteration      1(  11)  ---------------------------------------


    POTLOK:  cpu time      0.0085: real time      0.0088
    SETDIJ:  cpu time      0.0673: real time      0.0677
     EDDAV:  cpu time      0.2126: real time      0.2138
       DOS:  cpu time      0.0001: real time      0.0001
    CHARGE:  cpu time      0.0120: real time      0.0120
    MIXING:  cpu time      0.0003: real time      0.0003
    --------------------------------------------
      LOOP:  cpu time      0.3009: real time      0.3028

 eigenvalue-minimisations  :  1200
 total energy-change (2. order) : 0.3707101E-03  (-0.2086638E-03)
 number of electron      40.0000000 magnetization 
 augmentation part        0.4207352 magnetization 

 Broyden mixing:
  rms(total) = 0.36444E-02    rms(broyden)= 0.36396E-02
  rms(prec ) = 0.53069E-02
  weight for this iteration     100.00

 eigenvalues of (default mixing * dielectric matrix)
  average eigenvalue GAMMA=   1.6200
  2.6536  2.6536  0.8978  0.8978  1.3087  1.3087

 Free energy of the ion-electron system (eV)
  ---------------------------------------------------
  alpha Z        PSCENC =       240.34259355
  Ewald energy   TEWEN  =     -2693.37944630
  -Hartree energ DENC   =      -710.85887890
  -exchange      EXHF   =         0.00000000
  -V(xc)+E(xc)   XCENC  =       161.76843255
  PAW double counting   =      4603.98101543    -4590.84143368
  entropy T*S    EENTRO =        -0.00000000
  eigenvalues    EBANDS =      -334.84737624
  atomic energy  EATOM  =      3282.14706587
  Solvation  Ediel_sol  =         0.00000000
  ---------------------------------------------------
  free energy    TOTEN  =       -41.68802770 eV

  energy without entropy =      -41.68802770  energy(sigma->0) =      -41.68802770


--------------------------------------------------------------------------------------------------------




--------------------------------------- Iteration      1(  12)  ---------------------------------------


    POTLOK:  cpu time      0.0085: real time      0.0087
    SETDIJ:  cpu time      0.0674: real time      0.0677
     EDDAV:  cpu time      0.2038: real time      0.2049
       DOS:  cpu time      0.0001: real time      0.0001
    CHARGE:  cpu time      0.0119: real time      0.0119
    MIXING:  cpu time      0.0004: real time      0.0004
    --------------------------------------------
      LOOP:  cpu time      0.2920: real time      0.2937

 eigenvalue-minimisations  :  1136
 total energy-change (2. order) :-0.4937620E-04  (-0.1588785E-04)
 number of electron      40.0000000 magnetization 
 augmentation part        0.4207429 magnetization 

 Broyden mixing:
  rms(total) = 0.40957E-02    rms(broyden)= 0.40954E-02
  rms(prec ) = 0.47853E-02
  weight for this iteration     100.00

 eigenvalues of (default mixing * dielectric matrix)
  average eigenvalue GAMMA=   1.5624
  2.9025  2.3385  1.7233  0.8956  0.8956  1.0906  1.0906

 Free energy of the ion-electron system (eV)
  ---------------------------------------------------
  alpha Z        PSCENC =       240.34259355
  Ewald energy   TEWEN  =     -2693.37944630
  -Hartree energ DENC   =      -710.92826881
  -exchange      EXHF   =         0.00000000
  -V(xc)+E(xc)   XCENC  =       161.77312606
  PAW double counting   =      4596.67736043    -4583.51196387
  entropy T*S    EENTRO =        -0.00000000
  eigenvalues    EBANDS =      -334.80854401
  atomic energy  EATOM  =      3282.14706587
  Solvation  Ediel_sol  =         0.00000000
  ---------------------------------------------------
  free energy    TOTEN  =       -41.68807708 eV

  energy without entropy =      -41.68807708  energy(sigma->0) =      -41.68807708


--------------------------------------------------------------------------------------------------------




--------------------------------------- Iteration      1(  13)  ---------------------------------------


    POTLOK:  cpu time      0.0085: real time      0.0088
    SETDIJ:  cpu time      0.0673: real time      0.0677
     EDDAV:  cpu time      0.2579: real time      0.2593
       DOS:  cpu time      0.0003: real time      0.0011
    CHARGE:  cpu time      0.0119: real time      0.0119
    MIXING:  cpu time      0.0004: real time      0.0004
    --------------------------------------------
      LOOP:  cpu time      0.3463: real time      0.3491

 eigenvalue-minimisations  :  1512
 total energy-change (2. order) :-0.6204209E-07  (-0.2283340E-05)
 number of electron      40.0000000 magnetization 
 augmentation part        0.4209831 magnetization 

 Broyden mixing:
  rms(total) = 0.51556E-03    rms(broyden)= 0.51532E-03
  rms(prec ) = 0.90686E-03
  weight for this iteration     100.00

 eigenvalues of (default mixing * dielectric matrix)
  average eigenvalue GAMMA=   1.5718
  2.9398  2.1471  2.1471  1.4026  1.2270  0.8963  0.8963  0.9179

 Free energy of the ion-electron system (eV)
  ---------------------------------------------------
  alpha Z        PSCENC =       240.34259355
  Ewald energy   TEWEN  =     -2693.37944630
  -Hartree energ DENC   =      -710.90531402
  -exchange      EXHF   =         0.00000000
  -V(xc)+E(xc)   XCENC  =       161.77291533
  PAW double counting   =      4600.11698695    -4586.95568624
  entropy T*S    EENTRO =        -0.00000000
  eigenvalues    EBANDS =      -334.82719230
  atomic energy  EATOM  =      3282.14706587
  Solvation  Ediel_sol  =         0.00000000
  ---------------------------------------------------
  free energy    TOTEN  =       -41.68807714 eV

  energy without entropy =      -41.68807714  energy(sigma->0) =      -41.68807714


--------------------------------------------------------------------------------------------------------




--------------------------------------- Iteration      1(  14)  ---------------------------------------


    POTLOK:  cpu time      0.0085: real time      0.0087
    SETDIJ:  cpu time      0.0673: real time      0.0677
     EDDAV:  cpu time      0.1820: real time      0.1831
       DOS:  cpu time      0.0001: real time      0.0001
    --------------------------------------------
      LOOP:  cpu time      0.2580: real time      0.2596

 eigenvalue-minimisations  :   968
 total energy-change (2. order) :-0.1782901E-06  (-0.1572486E-06)
 number of electron      40.0000000 magnetization 
 augmentation part        0.4209831 magnetization 

 Free energy of the ion-electron system (eV)
  ---------------------------------------------------
  alpha Z        PSCENC =       240.34259355
  Ewald energy   TEWEN  =     -2693.37944630
  -Hartree energ DENC   =      -710.90490752
  -exchange      EXHF   =         0.00000000
  -V(xc)+E(xc)   XCENC  =       161.77324316
  PAW double counting   =      4600.10510942    -4586.94619576
  entropy T*S    EENTRO =        -0.00000000
  eigenvalues    EBANDS =      -334.82553975
  atomic energy  EATOM  =      3282.14706587
  Solvation  Ediel_sol  =         0.00000000
  ---------------------------------------------------
  free energy    TOTEN  =       -41.68807732 eV

  energy without entropy =      -41.68807732  energy(sigma->0) =      -41.68807732


--------------------------------------------------------------------------------------------------------




 average (electrostatic) potential at core
  the test charge radii are     1.2192  1.0638  0.7215
  (the norm of the test charge is              1.0000)
       1 -33.5775       2 -78.1390       3 -69.3334       4 -69.3334       5 -69.3334
 
 
 
 E-fermi :   4.0428     XC(G=0): -10.7690     alpha+bet :-13.8810

 val. band max:        3.7859868968   @ k =   0.5000   0.5000   0.5000
 cond. band min:       6.9740932162   @ k =   0.0000   0.0000   0.0000
 fundamental gap:      3.1881063194
 Fermi energy:         4.0428264436

 k-point     1 :       0.0000    0.0000    0.0000
  band No.  band energies     occupation 
      1     -43.2364      2.00000
      2     -21.5311      2.00000
      3     -21.3968      2.00000
      4     -21.3968      2.00000
      5     -21.3968      2.00000
      6     -12.5852      2.00000
      7     -12.3042      2.00000
      8     -12.3042      2.00000
      9      -6.6680      2.00000
     10      -6.6680      2.00000
     11      -6.6680      2.00000
     12       2.3359      2.00000
     13       2.3359      2.00000
     14       2.3359      2.00000
     15       2.8021      2.00000
     16       2.8021      2.00000
     17       2.8021      2.00000
     18       3.5612      2.00000
     19       3.5612      2.00000
     20       3.5612      2.00000
     21       6.9741      0.00000
     22       6.9741      0.00000
     23       6.9741      0.00000
     24       8.4395      0.00000

 k-point     2 :       0.1667    0.0000    0.0000
  band No.  band energies     occupation 
      1     -43.2356      2.00000
      2     -21.6093      2.00000
      3     -21.3951      2.00000
      4     -21.3951      2.00000
      5     -21.3673      2.00000
      6     -12.5917      2.00000
      7     -12.2986      2.00000
      8     -12.1195      2.00000
      9      -6.6509      2.00000
     10      -6.6509      2.00000
     11      -6.6175      2.00000
     12       1.8888      2.00000
     13       2.2437      2.00000
     14       2.2437      2.00000
     15       2.5551      2.00000
     16       2.5551      2.00000
     17       2.6038      2.00000
     18       2.9133      2.00000
     19       3.4752      2.00000
     20       3.4752      2.00000
     21       7.0709      0.00000
     22       7.5808      0.00000
     23       7.5808      0.00000
     24       8.8706      0.00000

 k-point     3 :       0.3333    0.0000    0.0000
  band No.  band energies     occupation 
      1     -43.2339      2.00000
      2     -21.7399      2.00000
      3     -21.3917      2.00000
      4     -21.3917      2.00000
      5     -21.3287      2.00000
      6     -12.6962      2.00000
      7     -12.2867      2.00000
      8     -11.6250      2.00000
      9      -6.6163      2.00000
     10      -6.6163      2.00000
     11      -6.5175      2.00000
     12       0.7374      2.00000
     13       2.0141      2.00000
     14       2.0141      2.00000
     15       2.1883      2.00000
     16       2.1883      2.00000
     17       2.2226      2.00000
     18       2.2596      2.00000
     19       3.3683      2.00000
     20       3.3683      2.00000
     21       7.2913      0.00000
     22       8.7969      0.00000
     23       8.7969      0.00000
     24       9.7468      0.00000

 k-point     4 :       0.5000    0.0000    0.0000
  band No.  band energies     occupation 
      1     -43.2330      2.00000
      2     -21.7999      2.00000
      3     -21.3900      2.00000
      4     -21.3900      2.00000
      5     -21.3123      2.00000
      6     -12.7558      2.00000
      7     -12.2806      2.00000
      8     -11.3503      2.00000
      9      -6.5987      2.00000
     10      -6.5987      2.00000
     11      -6.4679      2.00000
     12       0.1353      2.00000
     13       1.8776      2.00000
     14       1.8776      2.00000
     15       1.9962      2.00000
     16       2.0555      2.00000
     17       2.0555      2.00000
     18       2.1068      2.00000
     19       3.3318      2.00000
     20       3.3318      2.00000
     21       7.4200      0.00000
     22       9.4935      0.00000
     23       9.4935      0.00000
     24      10.2161      0.00000

 k-point     5 :       0.1667    0.1667    0.0000
  band No.  band energies     occupation 
      1     -43.2347      2.00000
      2     -21.6269      2.00000
      3     -21.4599      2.00000
      4     -21.3935      2.00000
      5     -21.3343      2.00000
      6     -12.5416      2.00000
      7     -12.1639      2.00000
      8     -12.1065      2.00000
      9      -6.6935      2.00000
     10      -6.6309      2.00000
     11      -6.5520      2.00000
     12       1.6531      2.00000
     13       1.9379      2.00000
     14       2.0416      2.00000
     15       2.1481      2.00000
     16       2.3366      2.00000
     17       2.7327      2.00000
     18       2.8153      2.00000
     19       3.1858      2.00000
     20       3.3678      2.00000
     21       7.6257      0.00000
     22       7.6948      0.00000
     23       7.9040      0.00000
     24       9.3359      0.00000

 k-point     6 :       0.3333    0.1667    0.0000
  band No.  band energies     occupation 
      1     -43.2331      2.00000
      2     -21.7151      2.00000
      3     -21.4703      2.00000
      4     -21.3901      2.00000
      5     -21.3290      2.00000
      6     -12.5836      2.00000
      7     -12.1476      2.00000
      8     -11.6541      2.00000
      9      -6.6783      2.00000
     10      -6.5903      2.00000
     11      -6.5229      2.00000
     12       0.7100      2.00000
     13       1.2730      2.00000
     14       1.7738      2.00000
     15       1.9038      2.00000
     16       2.0006      2.00000
     17       2.3872      2.00000
     18       2.7871      2.00000
     19       3.0962      2.00000
     20       3.2409      2.00000
     21       7.8417      0.00000
     22       8.8344      0.00000
     23       8.8412      0.00000
     24      10.1722      0.00000

 k-point     7 :       0.5000    0.1667    0.0000
  band No.  band energies     occupation 
      1     -43.2322      2.00000
      2     -21.7691      2.00000
      3     -21.4552      2.00000
      4     -21.3884      2.00000
      5     -21.3345      2.00000
      6     -12.6223      2.00000
      7     -12.1475      2.00000
      8     -11.3830      2.00000
      9      -6.6395      2.00000
     10      -6.5697      2.00000
     11      -6.5402      2.00000
     12       0.1177      2.00000
     13       1.0341      2.00000
     14       1.7354      2.00000
     15       1.7576      2.00000
     16       1.8772      2.00000
     17       2.2734      2.00000
     18       2.7950      2.00000
     19       2.9879      2.00000
     20       3.2008      2.00000
     21       7.9469      0.00000
     22       9.4749      0.00000
     23       9.5200      0.00000
     24      10.5873      0.00000

 k-point     8 :       0.3333    0.3333    0.0000
  band No.  band energies     occupation 
      1     -43.2314      2.00000
      2     -21.6731      2.00000
      3     -21.5813      2.00000
      4     -21.3868      2.00000
      5     -21.3630      2.00000
      6     -12.4927      2.00000
      7     -11.7238      2.00000
      8     -11.6963      2.00000
      9      -6.7331      2.00000
     10      -6.5969      2.00000
     11      -6.5373      2.00000
     12       0.5251      2.00000
     13       0.6649      2.00000
     14       0.7633      2.00000
     15       1.6574      2.00000
     16       1.6707      2.00000
     17       2.4482      2.00000
     18       2.8169      2.00000
     19       3.0902      2.00000
     20       3.4596      2.00000
     21       8.9089      0.00000
     22       8.9240      0.00000
     23       9.3413      0.00000
     24      10.8715      0.00000

 k-point     9 :       0.5000    0.3333    0.0000
  band No.  band energies     occupation 
      1     -43.2306      2.00000
      2     -21.6935      2.00000
      3     -21.5800      2.00000
      4     -21.3928      2.00000
      5     -21.3852      2.00000
      6     -12.4741      2.00000
      7     -11.7353      2.00000
      8     -11.4492      2.00000
      9      -6.7119      2.00000
     10      -6.6786      2.00000
     11      -6.5101      2.00000
     12       0.0910      2.00000
     13       0.2955      2.00000
     14       0.6919      2.00000
     15       1.5089      2.00000
     16       1.5432      2.00000
     17       2.6662      2.00000
     18       2.7383      2.00000
     19       3.0442      2.00000
     20       3.5495      2.00000
     21       8.9605      0.00000
     22       9.4623      0.00000
     23       9.9020      0.00000
     24      10.6043      0.00000

 k-point    10 :       0.5000    0.5000    0.0000
  band No.  band energies     occupation 
      1     -43.2297      2.00000
      2     -21.6398      2.00000
      3     -21.6398      2.00000
      4     -21.4378      2.00000
      5     -21.3836      2.00000
      6     -12.4290      2.00000
      7     -11.4827      2.00000
      8     -11.4827      2.00000
      9      -6.7440      2.00000
     10      -6.7440      2.00000
     11      -6.4794      2.00000
     12       0.0270      2.00000
     13       0.0390      2.00000
     14       0.1330      2.00000
     15       1.3856      2.00000
     16       1.3856      2.00000
     17       2.8570      2.00000
     18       2.8570      2.00000
     19       2.9963      2.00000
     20       3.7089      2.00000
     21       9.4620      0.00000
     22       9.4620      0.00000
     23      10.2413      0.00000
     24      10.2814      0.00000

 k-point    11 :       0.1667    0.1667    0.1667
  band No.  band energies     occupation 
      1     -43.2339      2.00000
      2     -21.6286      2.00000
      3     -21.4580      2.00000
      4     -21.4580      2.00000
      5     -21.3192      2.00000
      6     -12.4072      2.00000
      7     -12.0963      2.00000
      8     -12.0963      2.00000
      9      -6.7061      2.00000
     10      -6.7061      2.00000
     11      -6.4707      2.00000
     12       1.3550      2.00000
     13       1.9103      2.00000
     14       1.9103      2.00000
     15       1.9600      2.00000
     16       1.9600      2.00000
     17       2.5100      2.00000
     18       3.0282      2.00000
     19       3.0889      2.00000
     20       3.0889      2.00000
     21       7.9788      0.00000
     22       7.9788      0.00000
     23       8.1159      0.00000
     24       9.7325      0.00000

 k-point    12 :       0.3333    0.1667    0.1667
  band No.  band energies     occupation 
      1     -43.2322      2.00000
      2     -21.6921      2.00000
      3     -21.4785      2.00000
      4     -21.4542      2.00000
      5     -21.3321      2.00000
      6     -12.4029      2.00000
      7     -12.0758      2.00000
      8     -11.6680      2.00000
      9      -6.7326      2.00000
     10      -6.7004      2.00000
     11      -6.4666      2.00000
     12       0.6778      2.00000
     13       1.0830      2.00000
     14       1.5838      2.00000
     15       1.6719      2.00000
     16       1.8570      2.00000
     17       2.3958      2.00000
     18       2.9046      2.00000
     19       3.0369      2.00000
     20       3.0412      2.00000
     21       8.2385      0.00000
     22       8.8635      0.00000
     23       9.0352      0.00000
     24      10.4743      0.00000

 k-point    13 :       0.5000    0.1667    0.1667
  band No.  band energies     occupation 
      1     -43.2314      2.00000
      2     -21.7426      2.00000
      3     -21.4544      2.00000
      4     -21.4523      2.00000
      5     -21.3517      2.00000
      6     -12.4361      2.00000
      7     -12.0653      2.00000
      8     -11.4001      2.00000
      9      -6.7464      2.00000
     10      -6.6204      2.00000
     11      -6.5426      2.00000
     12       0.1062      2.00000
     13       0.8871      2.00000
     14       1.4688      2.00000
     15       1.5466      2.00000
     16       1.8141      2.00000
[...]
     14       1.6616      2.00000
     15       1.8016      2.00000
     16       1.8016      2.00000
     17       2.2557      2.00000
     18       2.8396      2.00000
     19       2.8721      2.00000
     20       2.8721      2.00000
     21       7.6469      0.00000
     22       7.6469      0.00000
     23       7.7640      0.00000
     24       9.4038      0.00000

 k-point    12 :       0.3333    0.1667    0.1667
  band No.  band energies     occupation 
      1     -43.6540      2.00000
      2     -22.0190      2.00000
      3     -21.8429      2.00000
      4     -21.8248      2.00000
      5     -21.6954      2.00000
      6     -12.5688      2.00000
      7     -12.2509      2.00000
      8     -11.8952      2.00000
      9      -7.0387      2.00000
     10      -7.0135      2.00000
     11      -6.8079      2.00000
     12       0.4921      2.00000
     13       0.9350      2.00000
     14       1.4226      2.00000
     15       1.4877      2.00000
     16       1.6213      2.00000
     17       2.1544      2.00000
     18       2.7029      2.00000
     19       2.8197      2.00000
     20       2.8519      2.00000
     21       7.8807      0.00000
     22       8.4977      0.00000
     23       8.6417      0.00000
     24      10.1011      0.00000

 k-point    13 :       0.5000    0.1667    0.1667
  band No.  band energies     occupation 
      1     -43.6533      2.00000
      2     -22.0652      2.00000
      3     -21.8248      2.00000
      4     -21.8232      2.00000
      5     -21.7070      2.00000
      6     -12.5959      2.00000
      7     -12.2413      2.00000
      8     -11.6584      2.00000
      9      -7.0501      2.00000
     10      -6.9453      2.00000
     11      -6.8738      2.00000
     12      -0.0485      2.00000
     13       0.7571      2.00000
     14       1.3014      2.00000
     15       1.3547      2.00000
     16       1.5892      2.00000
     17       2.2324      2.00000
     18       2.6280      2.00000
     19       2.7349      2.00000
     20       2.7932      2.00000
     21       7.9829      0.00000
     22       9.1258      0.00000
     23       9.1573      0.00000
     24      10.4687      0.00000

 k-point    14 :       0.3333    0.3333    0.1667
  band No.  band energies     occupation 
      1     -43.6526      2.00000
      2     -21.9882      2.00000
      3     -21.9313      2.00000
      4     -21.8265      2.00000
      5     -21.7206      2.00000
      6     -12.4236      2.00000
      7     -11.9385      2.00000
      8     -11.8999      2.00000
      9      -7.1075      2.00000
     10      -7.0851      2.00000
     11      -6.8571      2.00000
     12       0.4101      2.00000
     13       0.4929      2.00000
     14       0.6587      2.00000
     15       1.3024      2.00000
     16       1.3543      2.00000
     17       1.9384      2.00000
     18       2.6713      2.00000
     19       2.8504      2.00000
     20       3.2308      2.00000
     21       8.6715      0.00000
     22       8.7238      0.00000
     23       9.0937      0.00000
     24      10.5221      0.00000

 k-point    15 :       0.5000    0.3333    0.1667
  band No.  band energies     occupation 
      1     -43.6519      2.00000
      2     -22.0137      2.00000
      3     -21.9302      2.00000
      4     -21.8210      2.00000
      5     -21.7421      2.00000
      6     -12.4021      2.00000
      7     -11.9286      2.00000
      8     -11.6904      2.00000
      9      -7.1344      2.00000
     10      -7.0815      2.00000
     11      -6.9267      2.00000
     12      -0.0589      2.00000
     13       0.3690      2.00000
     14       0.5149      2.00000
     15       1.2318      2.00000
     16       1.2796      2.00000
     17       1.9616      2.00000
     18       2.7335      2.00000
     19       2.7972      2.00000
     20       3.3334      2.00000
     21       8.7651      0.00000
     22       9.1805      0.00000
     23       9.5889      0.00000
     24      10.2492      0.00000

 k-point    16 :       0.5000    0.5000    0.1667
  band No.  band energies     occupation 
      1     -43.6513      2.00000
      2     -21.9814      2.00000
      3     -21.9814      2.00000
      4     -21.8195      2.00000
      5     -21.7661      2.00000
      6     -12.3549      2.00000
      7     -11.7072      2.00000
      8     -11.7072      2.00000
      9      -7.1469      2.00000
     10      -7.1469      2.00000
     11      -6.9802      2.00000
     12      -0.0879      2.00000
     13      -0.0277      2.00000
     14       0.2169      2.00000
     15       1.1977      2.00000
     16       1.1977      2.00000
     17       1.9174      2.00000
     18       2.8573      2.00000
     19       2.8573      2.00000
     20       3.5069      2.00000
     21       9.2041      0.00000
     22       9.2041      0.00000
     23       9.8141      0.00000
     24       9.9783      0.00000

 k-point    17 :       0.3333    0.3333    0.3333
  band No.  band energies     occupation 
      1     -43.6513      2.00000
      2     -21.9591      2.00000
      3     -21.9276      2.00000
      4     -21.9276      2.00000
      5     -21.7361      2.00000
      6     -12.0285      2.00000
      7     -11.8615      2.00000
      8     -11.8615      2.00000
      9      -7.2339      2.00000
     10      -7.2339      2.00000
     11      -7.0016      2.00000
     12       0.4775      2.00000
     13       0.4944      2.00000
     14       0.4944      2.00000
     15       0.8891      2.00000
     16       1.1498      2.00000
     17       1.1498      2.00000
     18       3.0865      2.00000
     19       3.0865      2.00000
     20       3.3073      2.00000
     21       9.1558      0.00000
     22       9.1558      0.00000
     23       9.2048      0.00000
     24      10.5977      0.00000

 k-point    18 :       0.5000    0.3333    0.3333
  band No.  band energies     occupation 
      1     -43.6506      2.00000
      2     -21.9900      2.00000
      3     -21.9273      2.00000
      4     -21.9258      2.00000
      5     -21.7474      2.00000
      6     -11.9719      2.00000
      7     -11.8416      2.00000
      8     -11.6675      2.00000
      9      -7.2968      2.00000
     10      -7.2456      2.00000
     11      -7.1311      2.00000
     12      -0.0498      2.00000
     13       0.4956      2.00000
     14       0.6177      2.00000
     15       0.6850      2.00000
     16       1.0774      2.00000
     17       1.1989      2.00000
     18       3.1120      2.00000
     19       3.2510      2.00000
     20       3.3937      2.00000
     21       9.1780      0.00000
     22       9.4193      0.00000
     23       9.8370      0.00000
     24      10.0335      0.00000

 k-point    19 :       0.5000    0.5000    0.3333
  band No.  band energies     occupation 
      1     -43.6499      2.00000
      2     -21.9775      2.00000
      3     -21.9775      2.00000
      4     -21.9247      2.00000
      5     -21.7507      2.00000
      6     -11.8824      2.00000
      7     -11.6563      2.00000
      8     -11.6563      2.00000
      9      -7.3258      2.00000
     10      -7.3258      2.00000
     11      -7.2773      2.00000
     12      -0.0805      2.00000
     13       0.0021      2.00000
     14       0.5952      2.00000
     15       0.7745      2.00000
     16       1.0922      2.00000
     17       1.0922      2.00000
     18       3.3173      2.00000
     19       3.3173      2.00000
     20       3.5435      2.00000
     21       9.4749      0.00000
     22       9.4749      0.00000
     23       9.5588      0.00000
     24      10.2068      0.00000

 k-point    20 :       0.5000    0.5000    0.5000
  band No.  band energies     occupation 
      1     -43.6492      2.00000
      2     -21.9755      2.00000
      3     -21.9755      2.00000
      4     -21.9755      2.00000
      5     -21.7429      2.00000
      6     -11.6302      2.00000
      7     -11.6302      2.00000
      8     -11.6302      2.00000
      9      -7.4140      2.00000
     10      -7.4140      2.00000
     11      -7.4140      2.00000
     12      -0.0768      2.00000
     13      -0.0768      2.00000
     14       0.0912      2.00000
     15       1.0449      2.00000
     16       1.0449      2.00000
     17       1.0449      2.00000
     18       3.5621      2.00000
     19       3.5621      2.00000
     20       3.5621      2.00000
     21       9.4183      0.00000
     22       9.4183      0.00000
     23       9.4183      0.00000
     24      10.2854      0.00000


--------------------------------------------------------------------------------------------------------


 soft charge-density along one line, spin component           1
         0         1         2         3         4         5         6         7         8         9
 total charge-density along one line
 
 pseudopotential strength for first ion, spin component:           1
  1.216  -5.038  -0.000  -0.000   0.000  -0.000  -0.000  -0.000
 -5.038   0.686   0.000   0.000  -0.000  -0.000  -0.000   0.000
 -0.000   0.000  -7.683  -0.000   0.000   4.456   0.000   0.000
 -0.000   0.000  -0.000  -7.683   0.000   0.000   4.456   0.000
  0.000  -0.000   0.000   0.000  -7.683   0.000   0.000   4.456
 -0.000  -0.000   4.456   0.000   0.000   6.763  -0.000  -0.000
 -0.000  -0.000   0.000   4.456   0.000  -0.000   6.763  -0.000
 -0.000   0.000   0.000   0.000   4.456  -0.000  -0.000   6.763
  0.000   0.000   0.000   0.000  -0.000   0.000   0.000  -0.000
 -0.000   0.000  -0.000  -0.000   0.000  -0.000  -0.000   0.000
  0.000   0.000   0.000  -0.000  -0.000   0.000  -0.000   0.000
  0.000  -0.000   0.000   0.000  -0.000   0.000  -0.000  -0.000
 -0.000  -0.000   0.000  -0.000   0.000   0.000  -0.000  -0.000
  0.000   0.000   0.000   0.000  -0.000   0.000   0.000  -0.000
 -0.000   0.000  -0.000  -0.000   0.000  -0.000  -0.000   0.000
  0.000   0.000   0.000  -0.000  -0.000   0.000  -0.000   0.000
  0.000  -0.000   0.000   0.000  -0.000   0.000  -0.000  -0.000
 -0.000  -0.000   0.000  -0.000   0.000   0.000  -0.000  -0.000
 total augmentation occupancy for first ion, spin component:           1
  2.003  -0.007   0.000   0.000   0.000   0.000   0.000   0.000  -0.000   0.000  -0.000  -0.000  -0.000   0.000   0.000   0.000
 -0.007   0.347   0.000   0.000   0.000   0.000   0.000   0.000   0.000  -0.000  -0.000  -0.000   0.000  -0.000   0.000   0.000
  0.000   0.000   2.017   0.000   0.000  -0.009  -0.000  -0.000   0.000   0.000   0.000   0.000   0.000   0.000   0.000   0.000
  0.000   0.000   0.000   2.017  -0.000   0.000  -0.009   0.000   0.000   0.000   0.000   0.000   0.000   0.000   0.000   0.000
  0.000   0.000   0.000  -0.000   2.017   0.000  -0.000  -0.009   0.000   0.000   0.000   0.000   0.000   0.000   0.000   0.000
  0.000   0.000  -0.009   0.000   0.000   0.008   0.000   0.000   0.000   0.000   0.000   0.000   0.000   0.000   0.000   0.000
  0.000   0.000  -0.000  -0.009  -0.000   0.000   0.008   0.000   0.000   0.000   0.000   0.000   0.000   0.000   0.000   0.000
  0.000   0.000  -0.000   0.000  -0.009   0.000   0.000   0.008   0.000   0.000   0.000   0.000   0.000   0.000   0.000   0.000
 -0.000   0.000   0.000   0.000   0.000   0.000   0.000   0.000   2.015  -0.000  -0.000  -0.000  -0.000  -1.042   0.000   0.000
  0.000  -0.000   0.000   0.000   0.000   0.000   0.000   0.000  -0.000   2.015  -0.000   0.000   0.000   0.000  -1.042  -0.000
 -0.000  -0.000   0.000   0.000   0.000   0.000   0.000   0.000  -0.000  -0.000   1.239   0.000   0.000  -0.000  -0.000  -0.638
 -0.000  -0.000   0.000   0.000   0.000   0.000   0.000   0.000  -0.000   0.000  -0.000   2.015  -0.000  -0.000  -0.000   0.000
 -0.000   0.000   0.000   0.000   0.000   0.000   0.000   0.000   0.000   0.000   0.000  -0.000   1.239  -0.000  -0.000  -0.000
  0.000  -0.000   0.000   0.000   0.000   0.000   0.000   0.000  -1.042   0.000  -0.000  -0.000   0.000   0.540  -0.000  -0.000
  0.000   0.000   0.000   0.000   0.000   0.000   0.000   0.000   0.000  -1.042  -0.000  -0.000  -0.000  -0.000   0.540  -0.000
  0.000   0.000   0.000   0.000   0.000   0.000   0.000   0.000   0.000  -0.000  -0.638   0.000  -0.000  -0.000  -0.000   0.330
  0.000  -0.000   0.000   0.000   0.000   0.000   0.000   0.000   0.000  -0.000  -0.000  -1.042   0.000   0.000   0.000  -0.000
  0.000  -0.000   0.000   0.000   0.000   0.000   0.000   0.000  -0.000   0.000  -0.000  -0.000  -0.638   0.000   0.000   0.000


------------------------ aborting loop because EDIFF is reached ----------------------------------------





 total charge

# of ion       s       p       d       tot
------------------------------------------
    1        2.000   5.631   0.254   7.885
    2        2.192   6.075   1.389   9.655
    3        1.561   3.471   0.000   5.032
    4        1.561   3.471   0.000   5.032
    5        1.561   3.471   0.000   5.032
--------------------------------------------------
tot          8.874  22.119   1.643  32.636
 
    CHARGE:  cpu time      0.0118: real time      0.0118
    FORLOC:  cpu time      0.0007: real time      0.0007
    FORNL :  cpu time      0.0722: real time      0.0726
    STRESS:  cpu time      0.2175: real time      0.2187
    FORCOR:  cpu time      0.0081: real time      0.0081
    FORHAR:  cpu time      0.0016: real time      0.0016
    MIXING:  cpu time      0.0004: real time      0.0004
    OFIELD:  cpu time      0.0000: real time      0.0000

  FORCE on cell =-STRESS in cart. coord.  units (eV):
  Direction    XX          YY          ZZ          XY          YZ          ZX
  --------------------------------------------------------------------------------------
  Alpha Z   232.84279   232.84279   232.84279
  Ewald    -888.35662  -888.35662  -888.35662    -0.00000    -0.00000     0.00000
  Hartree   240.25119   240.25119   240.25119    -0.00000    -0.00000    -0.00000
  E(xc)    -175.49133  -175.49133  -175.49133    -0.00000    -0.00000    -0.00000
  Local     -66.32446   -66.32446   -66.32446     0.00000    -0.00000     0.00000
  n-local  -123.72494  -118.51942  -111.19206     0.12611     0.22815     0.09728
  augment    13.77403    13.77403    13.77403     0.00000     0.00000     0.00000
  Kinetic   755.66128   763.90576   763.77665    -2.66989    -3.21433    -1.63895
  Fock        0.00000     0.00000     0.00000     0.00000     0.00000     0.00000
  -------------------------------------------------------------------------------------
  Total      -0.00199    -0.00199    -0.00199    -0.00000     0.00000    -0.00000
  in kB      -0.04186    -0.04186    -0.04186    -0.00000     0.00000    -0.00000
  external pressure =       -0.04 kB  Pullay stress =        0.00 kB


 VOLUME and BASIS-vectors are now :
 -----------------------------------------------------------------------------
  energy-cutoff  :      520.00
  volume of cell :       76.04
      direct lattice vectors                 reciprocal lattice vectors
     4.236532978 -0.000000000 -0.000000000     0.236042067 -0.000000000  0.000000000
     0.000000000  4.236532978  0.000000000     0.000000000  0.236042067 -0.000000000
    -0.000000000  0.000000000  4.236532978     0.000000000 -0.000000000  0.236042067

  length of vectors
     4.236532978  4.236532978  4.236532978     0.236042067  0.236042067  0.236042067


 FORCES acting on ions
    electron-ion (+dipol)            ewald-force                    non-local-force                 convergence-correction
 -----------------------------------------------------------------------------------------------
   -.394E-15 -.107E-14 -.360E-14   -.208E-14 -.307E-14 -.266E-14   -.922E-24 -.911E-24 0.477E-24   0.724E-14 -.333E-14 0.198E-15
   0.149E-12 -.185E-11 -.267E-11   0.652E-14 0.119E-13 0.843E-14   -.955E-24 -.113E-23 -.105E-23   0.803E-14 0.577E-14 0.216E-13
   0.140E-12 -.167E-11 -.542E-12   -.272E-14 0.162E-14 -.802E-14   0.109E-23 0.313E-24 -.416E-24   0.180E-13 0.635E-14 -.417E-14
   0.140E-12 0.127E-14 -.224E-11   -.167E-14 -.109E-13 0.936E-15   0.306E-24 -.718E-24 -.190E-23   0.163E-13 -.355E-14 0.158E-13
   0.740E-15 0.141E-12 0.141E-12   0.135E-15 0.140E-15 0.995E-15   -.425E-24 -.192E-23 0.110E-23   -.259E-14 0.190E-13 0.150E-13
 -----------------------------------------------------------------------------------------------
   0.429E-12 -.337E-11 -.532E-11   0.187E-15 -.337E-15 -.320E-15   -.901E-24 -.437E-23 -.180E-23   0.470E-13 0.242E-13 0.485E-13
 
 
 POSITION                                       TOTAL-FORCE (eV/Angst)
 -----------------------------------------------------------------------------------
      0.00000      0.00000      0.00000        -0.000000     -0.000000     -0.000000
      2.11827      2.11827      2.11827         0.000000      0.000000      0.000000
      2.11827      2.11827      0.00000        -0.000000     -0.000000     -0.000000
      2.11827     -0.00000      2.11827        -0.000000     -0.000000     -0.000000
     -0.00000      2.11827      2.11827        -0.000000     -0.000000     -0.000000
 -----------------------------------------------------------------------------------
    total drift:                                0.000000     -0.000000     -0.000000


--------------------------------------------------------------------------------------------------------



  FREE ENERGIE OF THE ION-ELECTRON SYSTEM (eV)
  ---------------------------------------------------
  free  energy   TOTEN  =       -41.72398964 eV

  energy  without entropy=      -41.72398964  energy(sigma->0) =      -41.72398964
 
 d Force = 0.0000000E+00[ 0.000E+00, 0.000E+00]  d Energy = 0.4062909E-01-0.406E-01
 d Force = 0.0000000E+00[ 0.000E+00, 0.000E+00]  d Ewald  = 0.2988934E+02-0.299E+02


--------------------------------------------------------------------------------------------------------


    POTLOK:  cpu time      0.0749: real time      0.0753


--------------------------------------------------------------------------------------------------------


 stress matrix after NEB project (eV)
     -0.00199      0.00000     -0.00000
     -0.00000     -0.00199      0.00000
     -0.00000      0.00000     -0.00199
  FORCES: max atom, RMS     0.000000    0.000000
  FORCE total and by dimension    0.000000    0.000000
  Stress total and by dimension    0.003441    0.001987


--------------------------------------------------------------------------------------------------------


  
 reached required accuracy - stopping structural energy minimisation
     LOOP+:  cpu time      3.2342: real time      3.2575
    4ORBIT:  cpu time      0.0000: real time      0.0000



 total charge

# of ion       s       p       d       tot
------------------------------------------
    1        2.000   5.631   0.254   7.885
    2        2.192   6.075   1.389   9.655
    3        1.561   3.471   0.000   5.032
    4        1.561   3.471   0.000   5.032
    5        1.561   3.471   0.000   5.032
--------------------------------------------------
tot          8.874  22.119   1.643  32.636
 

 total amount of memory used by VASP MPI-rank0    38868. kBytes
=======================================================================

   base      :      30000. kBytes
   nonlr-proj:       2391. kBytes
   fftplans  :       1618. kBytes
   grid      :       2809. kBytes
   one-center:         46. kBytes
   wavefun   :       2004. kBytes
 
  
  
 General timing and accounting informations for this job:
 ========================================================
  
                  Total CPU time used (sec):       12.364
                            User time (sec):       11.818
                          System time (sec):        0.547
                         Elapsed time (sec):       14.621
  
                   Maximum memory used (kb):      356440.
                   Average memory used (kb):          N/A
  
                          Minor page faults:        25267
                          Major page faults:         1385
                 Voluntary context switches:         5318
