<?xml version="1.0" encoding="ISO-8859-1"?>
<modeling>
 <generator>
  <i name="program" type="string">vasp </i>
  <i name="version" type="string">6.4.3  </i>
  <i name="subversion" type="string">19Mar24 (build Jul 01 2024 12:12:31) complex                          parallel </i>
  <i name="platform" type="string">LinuxIFC </i>
  <i name="date" type="string">2024 12 04 </i>
  <i name="time" type="string">13:37:15 </i>
 </generator>
 <incar>
  <i type="string" name="SYSTEM">BaZrO3</i>
  <i type="int" name="ISTART">     0</i>
  <i type="string" name="PREC">Accurate</i>
  <i type="int" name="ISPIN">     1</i>
  <i type="int" name="ICHARG">     2</i>
  <i type="int" name="NELM">   100</i>
  <i type="int" name="NELMIN">     5</i>
  <i type="int" name="IBRION">     2</i>
  <i name="EDIFF">      0.00000100</i>
  <i name="EDIFFG">     -0.01000000</i>
  <i type="int" name="NSW">   100</i>
  <i type="int" name="ISIF">     3</i>
  <i name="ENCUT">    520.00000000</i>
  <i type="string" name="LREAL">Auto</i>
  <i type="int" name="ISMEAR">     0</i>
  <i name="SIGMA">      0.05000000</i>
  <i type="logical" name="LWAVE"> F  </i>
  <i type="logical" name="LCHARG"> T  </i>
  <i type="int" name="LORBIT">    11</i>
  <i type="logical" name="LASPH"> T  </i>
  <i type="string" name="GGA">PE</i>
 </incar>
 <primitive_cell>
  <structure name="primitive_cell" >
   <crystal>
    <varray name="basis" >
     <v>       4.19200000       0.00000000       0.00000000 </v>
     <v>       0.00000000       4.19200000       0.00000000 </v>
     <v>       0.00000000       0.00000000       4.19200000 </v>
    </varray>
    <i name="volume">     73.66544589 </i>
    <varray name="rec_basis" >
     <v>       0.23854962       0.00000000       0.00000000 </v>
     <v>       0.00000000       0.23854962       0.00000000 </v>
     <v>       0.00000000       0.00000000       0.23854962 </v>
    </varray>
   </crystal>
   <varray name="positions" >
    <v>       0.00000000       0.00000000       0.00000000 </v>
    <v>       0.50000000       0.50000000       0.50000000 </v>
    <v>       0.50000000       0.50000000       0.00000000 </v>
    <v>       0.50000000       0.00000000       0.50000000 </v>
    <v>       0.00000000       0.50000000       0.50000000 </v>
   </varray>
  </structure>
  <varray name="primitive_index" >
   <v type="int" >        1 </v>
   <v type="int" >        2 </v>
   <v type="int" >        3 </v>
   <v type="int" >        4 </v>
   <v type="int" >        5 </v>
  </varray>
 </primitive_cell>
 <kpoints>
  <generation param="Gamma">
   <v type="int" name="divisions">       6        6        6 </v>
   <v name="usershift">      0.00000000       0.00000000       0.00000000 </v>
   <v name="genvec1">      0.16666667       0.00000000       0.00000000 </v>
   <v name="genvec2">      0.00000000       0.16666667       0.00000000 </v>
   <v name="genvec3">      0.00000000       0.00000000       0.16666667 </v>
   <v name="shift">      0.00000000       0.00000000       0.00000000 </v>
  </generation>
  <varray name="kpointlist" >
   <v>       0.00000000       0.00000000       0.00000000 </v>
   <v>       0.16666667       0.00000000       0.00000000 </v>
   <v>       0.33333333       0.00000000       0.00000000 </v>
   <v>       0.50000000       0.00000000       0.00000000 </v>
   <v>       0.16666667       0.16666667       0.00000000 </v>
   <v>       0.33333333       0.16666667       0.00000000 </v>
   <v>       0.50000000       0.16666667       0.00000000 </v>
   <v>       0.33333333       0.33333333       0.00000000 </v>
   <v>       0.50000000       0.33333333       0.00000000 </v>
   <v>       0.50000000       0.50000000       0.00000000 </v>
   <v>       0.16666667       0.16666667       0.16666667 </v>
   <v>       0.33333333       0.16666667       0.16666667 </v>
   <v>       0.50000000       0.16666667       0.16666667 </v>
   <v>       0.33333333       0.33333333       0.16666667 </v>
   <v>       0.50000000       0.33333333       0.16666667 </v>
   <v>       0.50000000       0.50000000       0.16666667 </v>
   <v>       0.33333333       0.33333333       0.33333333 </v>
   <v>       0.50000000       0.33333333       0.33333333 </v>
   <v>       0.50000000       0.50000000       0.33333333 </v>
   <v>       0.50000000       0.50000000       0.50000000 </v>
  </varray>
  <varray name="weights" >
   <v>       0.00462963 </v>
   <v>       0.02777778 </v>
   <v>       0.02777778 </v>
   <v>       0.01388889 </v>
   <v>       0.05555556 </v>
   <v>       0.11111111 </v>
   <v>       0.05555556 </v>
   <v>       0.05555556 </v>
   <v>       0.05555556 </v>
   <v>       0.01388889 </v>
   <v>       0.03703704 </v>
   <v>       0.11111111 </v>
   <v>       0.05555556 </v>
   <v>       0.11111111 </v>
   <v>       0.11111111 </v>
   <v>       0.02777778 </v>
   <v>       0.03703704 </v>
   <v>       0.05555556 </v>
   <v>       0.02777778 </v>
   <v>       0.00462963 </v>
  </varray>
 </kpoints>
 <parameters>
  <separator name="general" >
   <i type="string" name="SYSTEM">BaZrO3</i>
   <i type="logical" name="LCOMPAT"> F  </i>
  </separator>
  <separator name="electronic" >
   <i type="string" name="PREC">accura</i>
   <i name="ENMAX">    520.00000000</i>
   <i name="ENAUG">    605.39200000</i>
   <i name="EDIFF">      0.00000100</i>
   <i type="int" name="IALGO">    38</i>
   <i type="int" name="IWAVPR">    11</i>
   <i type="int" name="NBANDS">    24</i>
   <i type="int" name="NBANDSLOW">    -1</i>
   <i type="int" name="NBANDSHIGH">    -1</i>
   <i name="NELECT">     40.00000000</i>
   <i type="int" name="TURBO">     0</i>
   <i type="int" name="IRESTART">     0</i>
   <i type="int" name="NREBOOT">     0</i>
   <i type="int" name="NMIN">     0</i>
   <i name="EREF">      0.00000000</i>
   <separator name="electronic smearing" >
    <i type="int" name="ISMEAR">     0</i>
    <i name="SIGMA">      0.05000000</i>
    <i name="KSPACING">      0.50000000</i>
    <i type="logical" name="KGAMMA"> T  </i>
    <i type="logical" name="KBLOWUP"> T  </i>
   </separator>
   <separator name="electronic projectors" >
    <i type="logical" name="LREAL"> T  </i>
    <v name="ROPT">     -0.00025000     -0.00025000     -0.00025000</v>
    <i type="int" name="LMAXPAW">  -100</i>
    <i type="int" name="LMAXMIX">     2</i>
    <i type="logical" name="NLSPLINE"> F  </i>
   </separator>
   <separator name="electronic startup" >
    <i type="int" name="ISTART">     0</i>
    <i type="int" name="ICHARG">     2</i>
    <i type="int" name="INIWAV">     1</i>
   </separator>
   <separator name="electronic spin" >
    <i type="int" name="ISPIN">     1</i>
    <i type="logical" name="LNONCOLLINEAR"> F  </i>
    <v name="MAGMOM">      1.00000000      1.00000000      1.00000000      1.00000000      1.00000000</v>
    <i name="NUPDOWN">     -1.00000000</i>
    <i type="logical" name="LSORBIT"> F  </i>
    <v name="SAXIS">      0.00000000      0.00000000      1.00000000</v>
    <i type="logical" name="LSPIRAL"> F  </i>
    <v name="QSPIRAL">      0.00000000      0.00000000      0.00000000</v>
    <i type="logical" name="LZEROZ"> F  </i>
   </separator>
   <separator name="electronic exchange-correlation" >
    <i type="logical" name="LASPH"> T  </i>
   </separator>
   <separator name="electronic convergence" >
    <i type="int" name="NELM">   100</i>
    <i type="int" name="NELMDL">    -5</i>
    <i type="int" name="NELMIN">     5</i>
    <i name="ENINI">    520.00000000</i>
    <separator name="electronic convergence detail" >
     <i type="logical" name="LDIAG"> T  </i>
     <i type="logical" name="LSUBROT"> F  </i>
     <i name="WEIMIN">      0.00100000</i>
     <i name="EBREAK">      0.00000001</i>
     <i name="DEPER">      0.30000000</i>
     <i type="int" name="NRMM">     4</i>
     <i name="TIME">      0.40000000</i>
    </separator>
   </separator>
   <separator name="electronic mixer" >
    <i name="AMIX">      0.40000000</i>
    <i name="BMIX">      1.00000000</i>
    <i name="AMIN">      0.10000000</i>
    <i name="AMIX_MAG">      1.60000000</i>
    <i name="BMIX_MAG">      1.00000000</i>
    <separator name="electronic mixer details" >
     <i type="int" name="IMIX">     4</i>
     <i type="logical" name="MIXFIRST"> F  </i>
     <i type="int" name="MAXMIX">   -45</i>
     <i name="WC">    100.00000000</i>
     <i type="int" name="INIMIX">     1</i>
     <i type="int" name="MIXPRE">     1</i>
     <i type="int" name="MREMOVE">     5</i>
    </separator>
   </separator>
   <separator name="electronic dipolcorrection" >
    <i type="logical" name="LDIPOL"> F  </i>
    <i type="logical" name="LMONO"> F  </i>
    <i type="int" name="IDIPOL">     0</i>
    <i name="EPSILON">      1.00000000</i>
    <v name="DIPOL">   -100.00000000   -100.00000000   -100.00000000</v>
    <i name="EFIELD">      0.00000000</i>
    <i type="logical" name="LVACPOTAV"> F  </i>
   </separator>
  </separator>
  <separator name="grids" >
   <i type="int" name="NGX">    32</i>
   <i type="int" name="NGY">    32</i>
   <i type="int" name="NGZ">    32</i>
   <i type="int" name="NGXF">    64</i>
   <i type="int" name="NGYF">    64</i>
   <i type="int" name="NGZF">    64</i>
   <i type="logical" name="ADDGRID"> F  </i>
  </separator>
  <separator name="ionic" >
   <i type="int" name="NSW">   100</i>
   <i type="int" name="IBRION">     2</i>
   <i type="int" name="MDALGO">     0</i>
   <i type="int" name="ISIF">     3</i>
   <i name="PSTRESS">      0.00000000</i>
   <i name="EDIFFG">     -0.01000000</i>
   <i type="int" name="NFREE">     1</i>
   <i name="POTIM">      0.50000000</i>
   <i name="SMASS">     -3.00000000</i>
   <i name="SCALEE">      1.00000000</i>
  </separator>
  <separator name="ionic md" >
   <i name="TEBEG">      0.00010000</i>
   <i name="TEEND">      0.00010000</i>
   <i type="int" name="NBLOCK">     1</i>
   <i type="int" name="KBLOCK">   100</i>
   <i type="int" name="NPACO">   256</i>
   <i name="APACO">     10.00000000</i>
  </separator>
  <separator name="symmetry" >
   <i type="int" name="ISYM">     2</i>
   <i name="SYMPREC">      0.00001000</i>
  </separator>
  <separator name="dos" >
   <i type="int" name="LORBIT">    11</i>
   <v name="RWIGS">     -1.00000000     -1.00000000     -1.00000000</v>
   <i type="int" name="NEDOS">   301</i>
   <i name="EMIN">     10.00000000</i>
   <i name="EMAX">    -10.00000000</i>
   <i name="EFERMI">      0.00000000</i>
  </separator>
  <separator name="writing" >
   <i type="int" name="NWRITE">     2</i>
   <i type="logical" name="LWAVE"> F  </i>
   <i type="logical" name="LDOWNSAMPLE"> F  </i>
   <i type="logical" name="LCHARG"> T  </i>
   <i type="logical" name="LPARD"> F  </i>
   <i type="logical" name="LVTOT"> F  </i>
   <i type="logical" name="LVHAR"> F  </i>
   <i type="logical" name="LELF"> F  </i>
   <i type="logical" name="LOPTICS"> F  </i>
   <v name="STM">      0.00000000      0.00000000      0.00000000      0.00000000      0.00000000      0.00000000      0.00000000</v>
  </separator>
  <separator name="performance" >
   <i type="int" name="NPAR">     4</i>
   <i type="int" name="NSIM">     4</i>
   <i type="int" name="NBLK">    -1</i>
   <i type="logical" name="LPLANE"> T  </i>
   <i type="logical" name="LSCALAPACK"> T  </i>
   <i type="logical" name="LSCAAWARE"> F  </i>
   <i type="logical" name="LSCALU"> F  </i>
   <i type="logical" name="LASYNC"> F  </i>
   <i type="logical" name="LORBITALREAL"> F  </i>
  </separator>
  <separator name="miscellaneous" >
   <i type="int" name="IDIOT">     3</i>
   <i type="int" name="PHON_NSTRUCT">    -1</i>
   <i type="logical" name="LMUSIC"> F  </i>
   <v name="POMASS">    137.32700000     91.22400000     16.00000000</v>
   <v name="DARWINR">      0.00000000      0.00000000      0.00000000</v>
   <v name="DARWINV">      1.00000000      1.00000000      1.00000000</v>
   <i type="logical" name="LCORR"> T  </i>
  </separator>
  <i type="logical" name="GGA_COMPAT"> T  </i>
  <i type="logical" name="LBERRY"> F  </i>
  <i type="int" name="ICORELEVEL">     0</i>
  <i type="logical" name="LDAU"> F  </i>
  <i type="int" name="I_CONSTRAINED_M">     0</i>
  <separator name="electronic exchange-correlation" >
   <i type="string" name="GGA    ">PE</i>
   <i type="string" name="XC_C">1</i>
   <i type="int" name="VOSKOWN">     0</i>
   <i type="logical" name="LHFCALC"> F  </i>
   <i type="string" name="PRECFOCK"></i>
   <i type="logical" name="LSYMGRAD"> F  </i>
   <i type="logical" name="LHFONE"> F  </i>
   <i type="logical" name="LRHFCALC"> F  </i>
   <i type="logical" name="LTHOMAS"> F  </i>
   <i type="logical" name="LMODELHF"> F  </i>
   <i type="logical" name="LFOCKACE"> F  </i>
   <i name="ENCUT4O">     -1.00000000</i>
   <i type="int" name="EXXOEP">     0</i>
   <i type="int" name="FOURORBIT">     0</i>
   <i name="AEXX">      0.00000000</i>
   <i name="HFALPHA">      0.00000000</i>
   <i name="MCALPHA">      0.00000000</i>
   <i name="ALDAX">      1.00000000</i>
   <i name="AGGAX">      1.00000000</i>
   <i name="AMGGAX">      1.00000000</i>
   <i name="ALDAC">      1.00000000</i>
   <i name="AGGAC">      1.00000000</i>
   <i name="AMGGAC">      1.00000000</i>
   <i type="int" name="NKREDX">     1</i>
   <i type="int" name="NKREDY">     1</i>
   <i type="int" name="NKREDZ">     1</i>
   <i type="logical" name="SHIFTRED"> F  </i>
   <i type="logical" name="ODDONLY"> F  </i>
   <i type="logical" name="EVENONLY"> F  </i>
   <i type="int" name="LMAXFOCK">     0</i>
   <i type="int" name="NMAXFOCKAE">     0</i>
   <i type="logical" name="LFOCKAEDFT"> F  </i>
   <i name="HFSCREEN">      0.00000000</i>
   <i name="HFSCREENC">      0.00000000</i>
   <i type="int" name="NBANDSGWLOW">     0</i>
  </separator>
  <separator name="vdW DFT" >
   <i type="logical" name="LUSE_VDW"> F  </i>
   <i type="int" name="IVDW_NL">    -1</i>
   <i type="logical" name="LSPIN_VDW"> F  </i>
   <i name="ZAB_VDW">     -0.84910000</i>
   <i name="GAMMA_VDW">      1.39626340</i>
   <i name="ALPHA_VDW">      0.00000000</i>
   <i name="PARAM1">      0.12340000</i>
   <i name="PARAM2">      1.00000000</i>
   <i name="BPARAM">      6.30000000</i>
   <i name="CPARAM">      0.00930000</i>
  </separator>
  <separator name="model GW" >
   <i type="int" name="MODEL_GW">     0</i>
   <i name="MODEL_EPS0">      8.83985351</i>
   <i name="MODEL_ALPHA">      1.00000000</i>
  </separator>
  <separator name="linear response parameters" >
   <i type="logical" name="LEPSILON"> F  </i>
   <i type="logical" name="LRPA"> F  </i>
   <i type="logical" name="LNABLA"> F  </i>
   <i type="logical" name="LVEL"> F  </i>
   <i name="CSHIFT">      0.10000000</i>
   <i name="OMEGAMAX">     -1.00000000</i>
   <i name="DEG_THRESHOLD">      0.00200000</i>
   <i name="RTIME">     -0.10000000</i>
   <i name="WPLASMAI">      0.00000000</i>
   <v name="DFIELD">      0.00000000      0.00000000      0.00000000</v>
   <v name="WPLASMA">      0.00000000      0.00000000      0.00000000      0.00000000      0.00000000      0.00000000      0.00000000      0.00000000      0.00000000</v>
  </separator>
  <separator name="orbital magnetization" >
   <i type="logical" name="NUCIND"> F  </i>
   <v name="MAGPOS">      0.00000000      0.00000000      0.00000000</v>
   <i type="logical" name="LNICSALL"> T  </i>
   <i type="logical" name="ORBITALMAG"> F  </i>
   <i type="logical" name="LMAGBLOCH"> F  </i>
   <i type="logical" name="LCHIMAG"> F  </i>
   <i type="logical" name="LGAUGE"> T  </i>
   <i type="int" name="MAGATOM">     0</i>
   <v name="MAGDIPOL">      0.00000000      0.00000000      0.00000000</v>
   <v name="AVECCONST">      0.00000000      0.00000000      0.00000000</v>
  </separator>
  <separator name="response functions" >
   <i type="logical" name="LALL_IN_ONE"> F  </i>
   <i type="int" name="IALL_IN_ONE">    -1</i>
   <i type="int" name="NBANDS_WAVE">    -1</i>
   <i type="logical" name="LFINITE_TEMPERATURE"> F  </i>
   <i type="logical" name="LADDER"> F  </i>
   <i type="logical" name="LRPAFORCE"> F  </i>
   <i type="logical" name="LFXC"> F  </i>
   <i type="logical" name="LHARTREE"> T  </i>
   <i type="int" name="IBSE">     0</i>
   <v type="int" name="KPOINT">    -1     0     0     0</v>
   <i type="logical" name="LTCTC"> F  </i>
   <i type="logical" name="LTCTE"> F  </i>
   <i type="logical" name="LTETE"> F  </i>
   <i type="logical" name="LTRIPLET"> F  </i>
   <i type="logical" name="LFXCEPS"> F  </i>
   <i type="logical" name="LFXHEG"> F  </i>
   <i type="int" name="NATURALO">     2</i>
   <i type="logical" name="LHOLEGF"> F  </i>
   <i type="logical" name="L2ORDER"> F  </i>
   <i type="logical" name="LDMP1"> F  </i>
   <i type="logical" name="LMP2LT"> F  </i>
   <i type="logical" name="LSMP2LT"> F  </i>
   <i type="logical" name="LGWLF"> F  </i>
   <i name="ENCUTGW">     -1.60000002</i>
   <i name="ENCUTGWSOFT">     -1.60000002</i>
   <i name="ENCUTLF">     -1.00000000</i>
   <i type="logical" name="ESF_SPLINES"> F  </i>
   <i name="ESF_CONV">      0.01000000</i>
   <i type="int" name="ESF_NINTER">    15</i>
   <i type="int" name="LMAXMP2">    -1</i>
   <i name="SCISSOR">      0.00000000</i>
   <i type="int" name="NOMEGA">     0</i>
   <i type="int" name="NOMEGAR">     0</i>
   <i type="int" name="NBANDSGW">    -1</i>
   <i type="int" name="NBANDSO">    -1</i>
   <i type="int" name="NBANDSV">    -1</i>
   <i type="int" name="NELMGW">     1</i>
   <i type="int" name="NELMHF">     1</i>
   <i type="int" name="DIM">     3</i>
   <i type="int" name="IESPILON">     4</i>
   <i type="int" name="ANTIRES">     0</i>
   <i name="OMEGAMAX">    -30.00000000</i>
   <i name="OMEGAMIN">    -30.00000000</i>
   <i name="OMEGATL">   -200.00000000</i>
   <i type="int" name="OMEGAGRID">     0</i>
   <i name="CSHIFT">     -0.10000000</i>
   <i type="logical" name="LSELFENERGY"> F  </i>
   <i type="logical" name="LSPECTRAL"> F  </i>
   <i type="logical" name="LSPECTRALGW"> F  </i>
   <i type="logical" name="LSINGLES"> F  </i>
   <i type="logical" name="LFERMIGW"> F  </i>
   <i type="logical" name="ODDONLYGW"> F  </i>
   <i type="logical" name="EVENONLYGW"> F  </i>
   <i type="int" name="NKREDLFX">     1</i>
   <i type="int" name="NKREDLFY">     1</i>
   <i type="int" name="NKREDLFZ">     1</i>
   <i type="int" name="MAXMEM">  2800</i>
   <i type="int" name="TELESCOPE">     0</i>
   <i type="int" name="NTAUPAR">    -1</i>
   <i type="int" name="NOMEGAPAR">    -1</i>
   <i name="DAMP_NEWTON">      0.80000001</i>
   <i name="LAMBDA">      1.00000000</i>
  </separator>
  <separator name="External order field" >
   <i name="OFIELD_KAPPA">      0.00000000</i>
   <v name="OFIELD_K">      0.00000000      0.00000000      0.00000000</v>
   <i name="OFIELD_Q6_NEAR">      0.00000000</i>
   <i name="OFIELD_Q6_FAR">      0.00000000</i>
   <i name="OFIELD_A">      0.00000000</i>
  </separator>
  <separator name="optional k-points parameters" >
   <i type="int" name="KPOINTS_OPT_MODE">     1</i>
   <i type="logical" name="LKPOINTS_OPT"> F  </i>
  </separator>
 </parameters>
 <atominfo>
  <atoms>       5 </atoms>
  <types>       3 </types>
  <array name="atoms" >
   <dimension dim="1">ion</dimension>
   <field type="string">element</field>
   <field type="int">atomtype</field>
   <set>
    <rc><c>Ba</c><c>   1</c></rc>
    <rc><c>Zr</c><c>   2</c></rc>
    <rc><c>O </c><c>   3</c></rc>
    <rc><c>O </c><c>   3</c></rc>
    <rc><c>O </c><c>   3</c></rc>
   </set>
  </array>
  <array name="atomtypes" >
   <dimension dim="1">type</dimension>
   <field type="int">atomspertype</field>
   <field type="string">element</field>
   <field>mass</field>
   <field>valence</field>
   <field type="string">pseudopotential</field>
   <set>
    <rc><c>   1</c><c>Ba</c><c>    137.32700000</c><c>     10.00000000</c><c>  PAW_PBE Ba_sv 06Sep2000               </c></rc>
    <rc><c>   1</c><c>Zr</c><c>     91.22400000</c><c>     12.00000000</c><c>  PAW_PBE Zr_sv 04Jan2005               </c></rc>
    <rc><c>   3</c><c>O </c><c>     16.00000000</c><c>      6.00000000</c><c>  PAW_PBE O 08Apr2002                   </c></rc>
   </set>
  </array>
 </atominfo>
 <structure name="initialpos" >
  <crystal>
   <varray name="basis" >
    <v>       4.19200000       0.00000000       0.00000000 </v>
    <v>       0.00000000       4.19200000       0.00000000 </v>
    <v>       0.00000000       0.00000000       4.19200000 </v>
   </varray>
   <i name="volume">     73.66544589 </i>
   <varray name="rec_basis" >
    <v>       0.23854962       0.00000000       0.00000000 </v>
    <v>       0.00000000       0.23854962       0.00000000 </v>
    <v>       0.00000000       0.00000000       0.23854962 </v>
   </varray>
  </crystal>
  <varray name="positions" >
   <v>       0.00000000       0.00000000       0.00000000 </v>
   <v>       0.50000000       0.50000000       0.50000000 </v>
   <v>       0.50000000       0.50000000       0.00000000 </v>
   <v>       0.50000000       0.00000000       0.50000000 </v>
   <v>       0.00000000       0.50000000       0.50000000 </v>
  </varray>
 </structure>
 <calculation>
  <scstep>
   <time name="dav">    0.20    0.27</time>
   <time name="total">    0.27    0.35</time>
   <energy>
    <i name="alphaZ">    240.34259355 </i>
    <i name="ewald">  -2693.37944630 </i>
    <i name="hartreedc">   -682.79388567 </i>
    <i name="XCdc">    159.34887639 </i>
    <i name="pawpsdc">   2561.05225630 </i>
    <i name="pawaedc">  -2544.85325127 </i>
    <i name="eentropy">     -0.00181669 </i>
    <i name="bandstr">      4.85632661 </i>
    <i name="atom">   3282.14706587 </i>
    <i name="e_fr_energy">    326.71871880 </i>
    <i name="e_wo_entrp">    326.72053549 </i>
    <i name="e_0_energy">    326.71962714 </i>
   </energy>
  </scstep>
  <scstep>
   <time name="dav">    0.22    0.22</time>
   <time name="total">    0.22    0.22</time>
   <energy>
    <i name="e_fr_energy">    -28.83234448 </i>
    <i name="e_wo_entrp">    -28.83234448 </i>
    <i name="e_0_energy">    -28.83234448 </i>
   </energy>
  </scstep>
  <scstep>
   <time name="dav">    0.27    0.28</time>
   <time name="total">    0.27    0.28</time>
   <energy>
    <i name="e_fr_energy">    -48.82622912 </i>
    <i name="e_wo_entrp">    -48.82622912 </i>
    <i name="e_0_energy">    -48.82622912 </i>
   </energy>
  </scstep>
  <scstep>
   <time name="dav">    0.24    0.25</time>
   <time name="total">    0.24    0.25</time>
   <energy>
    <i name="e_fr_energy">    -49.25422486 </i>
    <i name="e_wo_entrp">    -49.25422486 </i>
    <i name="e_0_energy">    -49.25422486 </i>
   </energy>
  </scstep>
  <scstep>
   <time name="dav">    0.24    0.24</time>
   <time name="total">    0.25    0.25</time>
   <energy>
    <i name="e_fr_energy">    -49.26243172 </i>
    <i name="e_wo_entrp">    -49.26243172 </i>
    <i name="e_0_energy">    -49.26243172 </i>
   </energy>
  </scstep>
  <scstep>
   <time name="dav">    0.21    0.21</time>
   <time name="total">    0.30    0.31</time>
   <energy>
    <i name="e_fr_energy">    -41.72169045 </i>
    <i name="e_wo_entrp">    -41.72169045 </i>
    <i name="e_0_energy">    -41.72169045 </i>
   </energy>
  </scstep>
  <scstep>
   <time name="dav">    0.25    0.25</time>
   <time name="total">    0.33    0.34</time>
   <energy>
    <i name="e_fr_energy">    -41.70174241 </i>
    <i name="e_wo_entrp">    -41.70174241 </i>
    <i name="e_0_energy">    -41.70174241 </i>
   </energy>
  </scstep>
  <scstep>
   <time name="dav">    0.23    0.23</time>
   <time name="total">    0.32    0.32</time>
   <energy>
    <i name="e_fr_energy">    -41.68779252 </i>
    <i name="e_wo_entrp">    -41.68779252 </i>
    <i name="e_0_energy">    -41.68779252 </i>
   </energy>
  </scstep>
  <scstep>
   <time name="dav">    0.23    0.23</time>
   <time name="total">    0.32    0.32</time>
   <energy>
    <i name="e_fr_energy">    -41.68664029 </i>
    <i name="e_wo_entrp">    -41.68664029 </i>
    <i name="e_0_energy">    -41.68664029 </i>
   </energy>
  </scstep>
  <scstep>
   <time name="dav">    0.23    0.23</time>
   <time name="total">    0.32    0.32</time>
   <energy>
    <i name="e_fr_energy">    -41.68839841 </i>
    <i name="e_wo_entrp">    -41.68839841 </i>
    <i name="e_0_energy">    -41.68839841 </i>
   </energy>
  </scstep>
  <scstep>
   <time name="dav">    0.21    0.21</time>
   <time name="total">    0.30    0.30</time>
   <energy>
    <i name="e_fr_energy">    -41.68802770 </i>
    <i name="e_wo_entrp">    -41.68802770 </i>
    <i name="e_0_energy">    -41.68802770 </i>
   </energy>
  </scstep>
  <scstep>
   <time name="dav">    0.20    0.20</time>
   <time name="total">    0.29    0.29</time>
   <energy>
    <i name="e_fr_energy">    -41.68807708 </i>
    <i name="e_wo_entrp">    -41.68807708 </i>
    <i name="e_0_energy">    -41.68807708 </i>
   </energy>
  </scstep>
  <scstep>
   <time name="dav">    0.26    0.26</time>
   <time name="total">    0.35    0.35</time>
   <energy>
    <i name="e_fr_energy">    -41.68807714 </i>
    <i name="e_wo_entrp">    -41.68807714 </i>
    <i name="e_0_energy">    -41.68807714 </i>
   </energy>
  </scstep>
  <scstep>
   <time name="dav">    0.18    0.18</time>
   <time name="total">    0.26    0.26</time>
   <energy>
    <i name="alphaZ">    240.34259355 </i>
    <i name="ewald">  -2693.37944630 </i>
    <i name="hartreedc">   -710.90490752 </i>
    <i name="XCdc">    161.77324316 </i>
    <i name="pawpsdc">   4600.10510942 </i>
    <i name="pawaedc">  -4586.94619576 </i>
    <i name="eentropy">     -0.00000000 </i>
    <i name="bandstr">   -334.82553975 </i>
    <i name="atom">   3282.14706587 </i>
    <i name="e_fr_energy">    -41.68807732 </i>
    <i name="e_wo_entrp">    -41.68807732 </i>
    <i name="e_0_energy">    -41.68807732 </i>
   </energy>
  </scstep>
  <structure>
   <crystal>
    <varray name="basis" >
     <v>       4.19200000       0.00000000       0.00000000 </v>
     <v>       0.00000000       4.19200000       0.00000000 </v>
     <v>       0.00000000       0.00000000       4.19200000 </v>
    </varray>
    <i name="volume">     73.66544589 </i>
    <varray name="rec_basis" >
     <v>       0.23854962       0.00000000       0.00000000 </v>
     <v>       0.00000000       0.23854962       0.00000000 </v>
     <v>       0.00000000       0.00000000       0.23854962 </v>
    </varray>
   </crystal>
   <varray name="positions" >
    <v>       0.00000000       0.00000000       0.00000000 </v>
    <v>       0.50000000       0.50000000       0.50000000 </v>
    <v>       0.50000000       0.50000000       0.00000000 </v>
    <v>       0.50000000       0.00000000       0.50000000 </v>
    <v>       0.00000000       0.50000000       0.50000000 </v>
   </varray>
  </structure>
  <varray name="forces" >
   <v>       0.00000000       0.00000000       0.00000000 </v>
   <v>      -0.00000000       0.00000000      -0.00000000 </v>
   <v>      -0.00000000      -0.00000000       0.00000000 </v>
   <v>      -0.00000000       0.00000000      -0.00000000 </v>
   <v>       0.00000000      -0.00000000      -0.00000000 </v>
  </varray>
  <varray name="stress" >
   <v>      49.78604860      -0.00000000      -0.00000000 </v>
   <v>       0.00000000      49.78604860       0.00000000 </v>
   <v>      -0.00000000       0.00000000      49.78604860 </v>
  </varray>
  <energy>
   <i name="e_fr_energy">    -41.68807732 </i>
   <i name="e_wo_entrp">    -41.68807732 </i>
   <i name="e_0_energy">    -41.68807732 </i>
  </energy>
  <time name="totalsc">    4.70    4.82</time>
 </calculation>
 <calculation>
  <scstep>
   <time name="dav">    0.19    0.19</time>
   <time name="total">    0.28    0.28</time>
   <energy>
    <i name="alphaZ">    225.09616672 </i>
    <i name="ewald">  -2635.17822737 </i>
    <i name="hartreedc">   -695.54291404 </i>
    <i name="XCdc">    158.42877247 </i>
    <i name="pawpsdc">   4600.01250761 </i>
    <i name="pawaedc">  -4586.85359843 </i>
    <i name="eentropy">     -0.00000000 </i>
    <i name="bandstr">   -390.79510685 </i>
    <i name="atom">   3282.14706587 </i>
    <i name="e_fr_energy">    -42.68533402 </i>
    <i name="e_wo_entrp">    -42.68533402 </i>
    <i name="e_0_energy">    -42.68533402 </i>
   </energy>
  </scstep>
  <scstep>
   <time name="dav">    0.21    0.21</time>
   <time name="total">    0.30    0.30</time>
   <energy>
    <i name="e_fr_energy">    -41.87199968 </i>
    <i name="e_wo_entrp">    -41.87199968 </i>
    <i name="e_0_energy">    -41.87199968 </i>
   </energy>
  </scstep>
  <scstep>
   <time name="dav">    0.21    0.21</time>
   <time name="total">    0.30    0.30</time>
   <energy>
    <i name="e_fr_energy">    -41.69002954 </i>
    <i name="e_wo_entrp">    -41.69002954 </i>
    <i name="e_0_energy">    -41.69002954 </i>
   </energy>
  </scstep>
  <scstep>
   <time name="dav">    0.25    0.25</time>
   <time name="total">    0.34    0.34</time>
   <energy>
    <i name="e_fr_energy">    -41.67350718 </i>
    <i name="e_wo_entrp">    -41.67350718 </i>
    <i name="e_0_energy">    -41.67350718 </i>
   </energy>
  </scstep>
  <scstep>
   <time name="dav">    0.22    0.23</time>
   <time name="total">    0.31    0.31</time>
   <energy>
    <i name="e_fr_energy">    -41.67850246 </i>
    <i name="e_wo_entrp">    -41.67850246 </i>
    <i name="e_0_energy">    -41.67850246 </i>
   </energy>
  </scstep>
  <scstep>
   <time name="dav">    0.26    0.26</time>
   <time name="total">    0.35    0.35</time>
   <energy>
    <i name="e_fr_energy">    -41.68317262 </i>
    <i name="e_wo_entrp">    -41.68317262 </i>
    <i name="e_0_energy">    -41.68317262 </i>
   </energy>
  </scstep>
  <scstep>
   <time name="dav">    0.23    0.23</time>
   <time name="total">    0.31    0.32</time>
   <energy>
    <i name="e_fr_energy">    -41.68332961 </i>
    <i name="e_wo_entrp">    -41.68332961 </i>
    <i name="e_0_energy">    -41.68332961 </i>
   </energy>
  </scstep>
  <scstep>
   <time name="dav">    0.22    0.22</time>
   <time name="total">    0.31    0.31</time>
   <energy>
    <i name="e_fr_energy">    -41.68336032 </i>
    <i name="e_wo_entrp">    -41.68336032 </i>
    <i name="e_0_energy">    -41.68336032 </i>
   </energy>
  </scstep>
  <scstep>
   <time name="dav">    0.24    0.25</time>
   <time name="total">    0.33    0.34</time>
   <energy>
    <i name="e_fr_energy">    -41.68335969 </i>
    <i name="e_wo_entrp">    -41.68335969 </i>
    <i name="e_0_energy">    -41.68335969 </i>
   </energy>
  </scstep>
  <scstep>
   <time name="dav">    0.18    0.18</time>
   <time name="total">    0.26    0.26</time>
   <energy>
    <i name="alphaZ">    225.09616672 </i>
    <i name="ewald">  -2635.17822737 </i>
    <i name="hartreedc">   -731.39706792 </i>
    <i name="XCdc">    160.73024009 </i>
    <i name="pawpsdc">   4141.99470852 </i>
    <i name="pawaedc">  -4129.32111076 </i>
    <i name="eentropy">     -0.00000000 </i>
    <i name="bandstr">   -355.75513571 </i>
    <i name="atom">   3282.14706587 </i>
    <i name="e_fr_energy">    -41.68336055 </i>
    <i name="e_wo_entrp">    -41.68336055 </i>
    <i name="e_0_energy">    -41.68336055 </i>
   </energy>
  </scstep>
  <structure>
   <crystal>
    <varray name="basis" >
     <v>       4.28458558      -0.00000000      -0.00000000 </v>
     <v>       0.00000000       4.28458558       0.00000000 </v>
     <v>      -0.00000000       0.00000000       4.28458558 </v>
    </varray>
    <i name="volume">     78.65502366 </i>
    <varray name="rec_basis" >
     <v>       0.23339480      -0.00000000       0.00000000 </v>
     <v>       0.00000000       0.23339480      -0.00000000 </v>
     <v>       0.00000000      -0.00000000       0.23339480 </v>
    </varray>
   </crystal>
   <varray name="positions" >
    <v>       0.00000000       0.00000000       0.00000000 </v>
    <v>       0.50000000       0.50000000       0.50000000 </v>
    <v>       0.50000000       0.50000000       0.00000000 </v>
    <v>       0.50000000       0.00000000       0.50000000 </v>
    <v>       0.00000000       0.50000000       0.50000000 </v>
   </varray>
  </structure>
  <varray name="forces" >
   <v>       0.00000000       0.00000000       0.00000000 </v>
   <v>       0.00000000       0.00000000       0.00000000 </v>
   <v>      -0.00000000      -0.00000000       0.00000000 </v>
   <v>      -0.00000000       0.00000000      -0.00000000 </v>
   <v>       0.00000000      -0.00000000      -0.00000000 </v>
  </varray>
  <varray name="stress" >
   <v>     -48.11851663       0.00000000       0.00000000 </v>
   <v>      -0.00000000     -48.11851663      -0.00000000 </v>
   <v>       0.00000000      -0.00000000     -48.11851663 </v>
  </varray>
  <energy>
   <i name="e_fr_energy">    -41.68336055 </i>
   <i name="e_wo_entrp">    -41.68336055 </i>
   <i name="e_0_energy">    -41.68336055 </i>
  </energy>
  <time name="totalsc">    3.58    3.61</time>
 </calculation>
 <calculation>
  <scstep>
   <time name="dav">    0.20    0.20</time>
   <time name="total">    0.28    0.28</time>
   <energy>
    <i name="alphaZ">    232.84278815 </i>
    <i name="ewald">  -2665.06756751 </i>
    <i name="hartreedc">   -739.68975576 </i>
    <i name="XCdc">    162.47425708 </i>
    <i name="pawpsdc">   4141.95762465 </i>
    <i name="pawaedc">  -4129.28496953 </i>
    <i name="eentropy">     -0.00000000 </i>
    <i name="bandstr">   -327.38436214 </i>
    <i name="atom">   3282.14706587 </i>
    <i name="e_fr_energy">    -42.00491918 </i>
    <i name="e_wo_entrp">    -42.00491918 </i>
    <i name="e_0_energy">    -42.00491918 </i>
   </energy>
  </scstep>
  <scstep>
   <time name="dav">    0.20    0.20</time>
   <time name="total">    0.29    0.29</time>
   <energy>
    <i name="e_fr_energy">    -41.77021731 </i>
    <i name="e_wo_entrp">    -41.77021731 </i>
    <i name="e_0_energy">    -41.77021731 </i>
   </energy>
  </scstep>
  <scstep>
   <time name="dav">    0.23    0.23</time>
   <time name="total">    0.32    0.32</time>
   <energy>
    <i name="e_fr_energy">    -41.72436221 </i>
    <i name="e_wo_entrp">    -41.72436221 </i>
    <i name="e_0_energy">    -41.72436221 </i>
   </energy>
  </scstep>
  <scstep>
   <time name="dav">    0.27    0.27</time>
   <time name="total">    0.35    0.36</time>
   <energy>
    <i name="e_fr_energy">    -41.72130035 </i>
    <i name="e_wo_entrp">    -41.72130035 </i>
    <i name="e_0_energy">    -41.72130035 </i>
   </energy>
  </scstep>
  <scstep>
   <time name="dav">    0.23    0.23</time>
   <time name="total">    0.32    0.32</time>
   <energy>
    <i name="e_fr_energy">    -41.72282591 </i>
    <i name="e_wo_entrp">    -41.72282591 </i>
    <i name="e_0_energy">    -41.72282591 </i>
   </energy>
  </scstep>
  <scstep>
   <time name="dav">    0.26    0.26</time>
   <time name="total">    0.35    0.35</time>
   <energy>
    <i name="e_fr_energy">    -41.72390818 </i>
    <i name="e_wo_entrp">    -41.72390818 </i>
    <i name="e_0_energy">    -41.72390818 </i>
   </energy>
  </scstep>
  <scstep>
   <time name="dav">    0.23    0.23</time>
   <time name="total">    0.31    0.32</time>
   <energy>
    <i name="e_fr_energy">    -41.72398239 </i>
    <i name="e_wo_entrp">    -41.72398239 </i>
    <i name="e_0_energy">    -41.72398239 </i>
   </energy>
  </scstep>
  <scstep>
   <time name="dav">    0.21    0.21</time>
   <time name="total">    0.29    0.30</time>
   <energy>
    <i name="e_fr_energy">    -41.72398931 </i>
    <i name="e_wo_entrp">    -41.72398931 </i>
    <i name="e_0_energy">    -41.72398931 </i>
   </energy>
  </scstep>
  <scstep>
   <time name="dav">    0.18    0.18</time>
   <time name="total">    0.25    0.25</time>
   <energy>
    <i name="alphaZ">    232.84278815 </i>
    <i name="ewald">  -2665.06756751 </i>
    <i name="hartreedc">   -720.73075341 </i>
    <i name="XCdc">    161.25876966 </i>
    <i name="pawpsdc">   4363.63178352 </i>
    <i name="pawaedc">  -4350.72020109 </i>
    <i name="eentropy">     -0.00000000 </i>
    <i name="bandstr">   -345.08587484 </i>
    <i name="atom">   3282.14706587 </i>
    <i name="e_fr_energy">    -41.72398964 </i>
    <i name="e_wo_entrp">    -41.72398964 </i>
    <i name="e_0_energy">    -41.72398964 </i>
   </energy>
  </scstep>
  <structure>
   <crystal>
    <varray name="basis" >
     <v>       4.23653298      -0.00000000      -0.00000000 </v>
     <v>       0.00000000       4.23653298       0.00000000 </v>
     <v>      -0.00000000       0.00000000       4.23653298 </v>
    </varray>
    <i name="volume">     76.03819066 </i>
    <varray name="rec_basis" >
     <v>       0.23604207      -0.00000000       0.00000000 </v>
     <v>       0.00000000       0.23604207      -0.00000000 </v>
     <v>       0.00000000      -0.00000000       0.23604207 </v>
    </varray>
   </crystal>
   <varray name="positions" >
    <v>       0.00000000       0.00000000       0.00000000 </v>
    <v>       0.50000000       0.50000000       0.50000000 </v>
    <v>       0.50000000       0.50000000       0.00000000 </v>
    <v>       0.50000000       0.00000000       0.50000000 </v>
    <v>       0.00000000       0.50000000       0.50000000 </v>
   </varray>
  </structure>
  <varray name="forces" >
   <v>      -0.00000000      -0.00000000      -0.00000000 </v>
   <v>       0.00000000       0.00000000       0.00000000 </v>
   <v>      -0.00000000      -0.00000000      -0.00000000 </v>
   <v>      -0.00000000      -0.00000000      -0.00000000 </v>
   <v>      -0.00000000      -0.00000000      -0.00000000 </v>
  </varray>
  <varray name="stress" >
   <v>      -0.04185703       0.00000000      -0.00000000 </v>
   <v>      -0.00000000      -0.04185703       0.00000000 </v>
   <v>      -0.00000000       0.00000000      -0.04185703 </v>
  </varray>
  <energy>
   <i name="e_fr_energy">    -41.72398964 </i>
   <i name="e_wo_entrp">    -41.72398964 </i>
   <i name="e_0_energy">    -41.72398964 </i>
  </energy>
  <time name="totalsc">    3.23    3.26</time>
  <eigenvalues>
   <array>
    <dimension dim="1">band</dimension>
    <dimension dim="2">kpoint</dimension>
    <dimension dim="3">spin</dimension>
    <field>eigene</field>
    <field>occ</field>
    <set>
     <set comment="spin 1">
      <set comment="kpoint 1">
       <r>  -43.6574    1.0000 </r>
       <r>  -21.8531    1.0000 </r>
       <r>  -21.7760    1.0000 </r>
       <r>  -21.7760    1.0000 </r>
       <r>  -21.7760    1.0000 </r>
       <r>  -12.7529    1.0000 </r>
       <r>  -12.4526    1.0000 </r>
       <r>  -12.4526    1.0000 </r>
       <r>   -6.9827    1.0000 </r>
       <r>   -6.9827    1.0000 </r>
       <r>   -6.9827    1.0000 </r>
       <r>    2.0664    1.0000 </r>
       <r>    2.0664    1.0000 </r>
       <r>    2.0664    1.0000 </r>
       <r>    2.6233    1.0000 </r>
       <r>    2.6233    1.0000 </r>
       <r>    2.6233    1.0000 </r>
       <r>    3.3049    1.0000 </r>
       <r>    3.3049    1.0000 </r>
       <r>    3.3049    1.0000 </r>
       <r>    6.6801    0.0000 </r>
       <r>    6.6801    0.0000 </r>
       <r>    6.6801    0.0000 </r>
       <r>    8.1749    0.0000 </r>
      </set>
      <set comment="kpoint 2">
       <r>  -43.6568    1.0000 </r>
       <r>  -21.9380    1.0000 </r>
       <r>  -21.7746    1.0000 </r>
       <r>  -21.7746    1.0000 </r>
       <r>  -21.7328    1.0000 </r>
       <r>  -12.7509    1.0000 </r>
       <r>  -12.4477    1.0000 </r>
       <r>  -12.2935    1.0000 </r>
       <r>   -6.9672    1.0000 </r>
       <r>   -6.9672    1.0000 </r>
       <r>   -6.9395    1.0000 </r>
       <r>    1.6317    1.0000 </r>
       <r>    1.9891    1.0000 </r>
       <r>    1.9891    1.0000 </r>
       <r>    2.3843    1.0000 </r>
       <r>    2.3843    1.0000 </r>
       <r>    2.4361    1.0000 </r>
       <r>    2.6911    1.0000 </r>
       <r>    3.2172    1.0000 </r>
       <r>    3.2172    1.0000 </r>
       <r>    6.7709    0.0000 </r>
       <r>    7.2578    0.0000 </r>
       <r>    7.2578    0.0000 </r>
       <r>    8.5856    0.0000 </r>
      </set>
      <set comment="kpoint 3">
       <r>  -43.6554    1.0000 </r>
       <r>  -22.0592    1.0000 </r>
       <r>  -21.7717    1.0000 </r>
       <r>  -21.7717    1.0000 </r>
       <r>  -21.6909    1.0000 </r>
       <r>  -12.8353    1.0000 </r>
       <r>  -12.4370    1.0000 </r>
       <r>  -11.8579    1.0000 </r>
       <r>   -6.9358    1.0000 </r>
       <r>   -6.9358    1.0000 </r>
       <r>   -6.8540    1.0000 </r>
       <r>    0.5421    1.0000 </r>
       <r>    1.8016    1.0000 </r>
       <r>    1.8016    1.0000 </r>
       <r>    2.0144    1.0000 </r>
       <r>    2.0144    1.0000 </r>
       <r>    2.0270    1.0000 </r>
       <r>    2.1099    1.0000 </r>
       <r>    3.1055    1.0000 </r>
       <r>    3.1055    1.0000 </r>
       <r>    6.9765    0.0000 </r>
       <r>    8.4104    0.0000 </r>
       <r>    8.4104    0.0000 </r>
       <r>    9.4229    0.0000 </r>
      </set>
      <set comment="kpoint 4">
       <r>  -43.6547    1.0000 </r>
       <r>  -22.1133    1.0000 </r>
       <r>  -21.7703    1.0000 </r>
       <r>  -21.7703    1.0000 </r>
       <r>  -21.6747    1.0000 </r>
       <r>  -12.8865    1.0000 </r>
       <r>  -12.4315    1.0000 </r>
       <r>  -11.6144    1.0000 </r>
       <r>   -6.9199    1.0000 </r>
       <r>   -6.9199    1.0000 </r>
       <r>   -6.8116    1.0000 </r>
       <r>   -0.0234    1.0000 </r>
       <r>    1.6874    1.0000 </r>
       <r>    1.6874    1.0000 </r>
       <r>    1.8085    1.0000 </r>
       <r>    1.8768    1.0000 </r>
       <r>    1.8768    1.0000 </r>
       <r>    1.9648    1.0000 </r>
       <r>    3.0662    1.0000 </r>
       <r>    3.0662    1.0000 </r>
       <r>    7.0954    0.0000 </r>
       <r>    9.0619    0.0000 </r>
       <r>    9.0619    0.0000 </r>
       <r>    9.8753    0.0000 </r>
      </set>
      <set comment="kpoint 5">
       <r>  -43.6561    1.0000 </r>
       <r>  -21.9547    1.0000 </r>
       <r>  -21.8295    1.0000 </r>
       <r>  -21.7732    1.0000 </r>
       <r>  -21.7032    1.0000 </r>
       <r>  -12.7009    1.0000 </r>
       <r>  -12.3338    1.0000 </r>
       <r>  -12.2789    1.0000 </r>
       <r>   -7.0062    1.0000 </r>
       <r>   -6.9494    1.0000 </r>
       <r>   -6.8815    1.0000 </r>
       <r>    1.4294    1.0000 </r>
       <r>    1.6819    1.0000 </r>
       <r>    1.8733    1.0000 </r>
       <r>    1.9090    1.0000 </r>
       <r>    2.1766    1.0000 </r>
       <r>    2.5126    1.0000 </r>
       <r>    2.6317    1.0000 </r>
       <r>    2.9621    1.0000 </r>
       <r>    3.1050    1.0000 </r>
       <r>    7.3000    0.0000 </r>
       <r>    7.3643    0.0000 </r>
       <r>    7.5778    0.0000 </r>
       <r>    9.0274    0.0000 </r>
      </set>
      <set comment="kpoint 6">
       <r>  -43.6547    1.0000 </r>
       <r>  -22.0383    1.0000 </r>
       <r>  -21.8370    1.0000 </r>
       <r>  -21.7704    1.0000 </r>
       <r>  -21.6923    1.0000 </r>
       <r>  -12.7304    1.0000 </r>
       <r>  -12.3160    1.0000 </r>
       <r>  -11.8833    1.0000 </r>
       <r>   -6.9931    1.0000 </r>
       <r>   -6.9131    1.0000 </r>
       <r>   -6.8576    1.0000 </r>
       <r>    0.5182    1.0000 </r>
       <r>    1.1186    1.0000 </r>
       <r>    1.5595    1.0000 </r>
       <r>    1.7109    1.0000 </r>
       <r>    1.8389    1.0000 </r>
       <r>    2.1930    1.0000 </r>
       <r>    2.5898    1.0000 </r>
       <r>    2.8814    1.0000 </r>
       <r>    2.9695    1.0000 </r>
       <r>    7.5008    0.0000 </r>
       <r>    8.4450    0.0000 </r>
       <r>    8.4766    0.0000 </r>
       <r>    9.8118    0.0000 </r>
      </set>
      <set comment="kpoint 7">
       <r>  -43.6540    1.0000 </r>
       <r>  -22.0873    1.0000 </r>
       <r>  -21.8255    1.0000 </r>
       <r>  -21.7689    1.0000 </r>
       <r>  -21.6930    1.0000 </r>
       <r>  -12.7633    1.0000 </r>
       <r>  -12.3151    1.0000 </r>
       <r>  -11.6433    1.0000 </r>
       <r>   -6.9575    1.0000 </r>
       <r>   -6.8947    1.0000 </r>
       <r>   -6.8751    1.0000 </r>
       <r>   -0.0389    1.0000 </r>
       <r>    0.8936    1.0000 </r>
       <r>    1.5122    1.0000 </r>
       <r>    1.5871    1.0000 </r>
       <r>    1.7127    1.0000 </r>
       <r>    2.0975    1.0000 </r>
       <r>    2.5818    1.0000 </r>
       <r>    2.7854    1.0000 </r>
       <r>    2.9253    1.0000 </r>
       <r>    7.5976    0.0000 </r>
       <r>    9.0467    0.0000 </r>
       <r>    9.1133    0.0000 </r>
       <r>   10.2098    0.0000 </r>
      </set>
      <set comment="kpoint 8">
       <r>  -43.6533    1.0000 </r>
       <r>  -22.0039    1.0000 </r>
       <r>  -21.9331    1.0000 </r>
       <r>  -21.7677    1.0000 </r>
       <r>  -21.7181    1.0000 </r>
       <r>  -12.6402    1.0000 </r>
       <r>  -11.9463    1.0000 </r>
       <r>  -11.9187    1.0000 </r>
       <r>   -7.0440    1.0000 </r>
       <r>   -6.9236    1.0000 </r>
       <r>   -6.8668    1.0000 </r>
       <r>    0.3856    1.0000 </r>
       <r>    0.4925    1.0000 </r>
       <r>    0.5745    1.0000 </r>
       <r>    1.5060    1.0000 </r>
       <r>    1.5219    1.0000 </r>
       <r>    2.2592    1.0000 </r>
       <r>    2.6053    1.0000 </r>
       <r>    2.8038    1.0000 </r>
       <r>    3.2424    1.0000 </r>
       <r>    8.5141    0.0000 </r>
       <r>    8.5265    0.0000 </r>
       <r>    8.9721    0.0000 </r>
       <r>   10.4020    0.0000 </r>
      </set>
      <set comment="kpoint 9">
       <r>  -43.6526    1.0000 </r>
       <r>  -22.0250    1.0000 </r>
       <r>  -21.9320    1.0000 </r>
       <r>  -21.7663    1.0000 </r>
       <r>  -21.7400    1.0000 </r>
       <r>  -12.6213    1.0000 </r>
       <r>  -11.9545    1.0000 </r>
       <r>  -11.7020    1.0000 </r>
       <r>   -7.0254    1.0000 </r>
       <r>   -6.9976    1.0000 </r>
       <r>   -6.8432    1.0000 </r>
       <r>   -0.0616    1.0000 </r>
       <r>    0.1842    1.0000 </r>
       <r>    0.5006    1.0000 </r>
       <r>    1.3702    1.0000 </r>
       <r>    1.4048    1.0000 </r>
       <r>    2.4578    1.0000 </r>
       <r>    2.5286    1.0000 </r>
       <r>    2.7521    1.0000 </r>
       <r>    3.3324    1.0000 </r>
       <r>    8.5606    0.0000 </r>
       <r>    9.0358    0.0000 </r>
       <r>    9.5006    0.0000 </r>
       <r>   10.1673    0.0000 </r>
      </set>
      <set comment="kpoint 10">
       <r>  -43.6520    1.0000 </r>
       <r>  -21.9834    1.0000 </r>
       <r>  -21.9834    1.0000 </r>
       <r>  -21.7738    1.0000 </r>
       <r>  -21.7650    1.0000 </r>
       <r>  -12.5781    1.0000 </r>
       <r>  -11.7316    1.0000 </r>
       <r>  -11.7316    1.0000 </r>
       <r>   -7.0559    1.0000 </r>
       <r>   -7.0559    1.0000 </r>
       <r>   -6.8168    1.0000 </r>
       <r>   -0.0916    1.0000 </r>
       <r>   -0.0733    1.0000 </r>
       <r>   -0.0452    1.0000 </r>
       <r>    1.2593    1.0000 </r>
       <r>    1.2593    1.0000 </r>
       <r>    2.6328    1.0000 </r>
       <r>    2.6328    1.0000 </r>
       <r>    2.6982    1.0000 </r>
       <r>    3.4889    1.0000 </r>
       <r>    9.0355    0.0000 </r>
       <r>    9.0355    0.0000 </r>
       <r>    9.8292    0.0000 </r>
       <r>    9.8639    0.0000 </r>
      </set>
      <set comment="kpoint 11">
       <r>  -43.6554    1.0000 </r>
       <r>  -21.9570    1.0000 </r>
       <r>  -21.8280    1.0000 </r>
       <r>  -21.8280    1.0000 </r>
       <r>  -21.6895    1.0000 </r>
       <r>  -12.5830    1.0000 </r>
       <r>  -12.2695    1.0000 </r>
       <r>  -12.2695    1.0000 </r>
       <r>   -7.0167    1.0000 </r>
       <r>   -7.0167    1.0000 </r>
       <r>   -6.8105    1.0000 </r>
       <r>    1.1664    1.0000 </r>
       <r>    1.6616    1.0000 </r>
       <r>    1.6616    1.0000 </r>
       <r>    1.8016    1.0000 </r>
       <r>    1.8016    1.0000 </r>
       <r>    2.2557    1.0000 </r>
       <r>    2.8396    1.0000 </r>
       <r>    2.8721    1.0000 </r>
       <r>    2.8721    1.0000 </r>
       <r>    7.6469    0.0000 </r>
       <r>    7.6469    0.0000 </r>
       <r>    7.7640    0.0000 </r>
       <r>    9.4038    0.0000 </r>
      </set>
      <set comment="kpoint 12">
       <r>  -43.6540    1.0000 </r>
       <r>  -22.0190    1.0000 </r>
       <r>  -21.8429    1.0000 </r>
       <r>  -21.8248    1.0000 </r>
       <r>  -21.6954    1.0000 </r>
       <r>  -12.5688    1.0000 </r>
       <r>  -12.2509    1.0000 </r>
       <r>  -11.8952    1.0000 </r>
       <r>   -7.0387    1.0000 </r>
       <r>   -7.0135    1.0000 </r>
       <r>   -6.8079    1.0000 </r>
       <r>    0.4921    1.0000 </r>
       <r>    0.9350    1.0000 </r>
       <r>    1.4226    1.0000 </r>
       <r>    1.4877    1.0000 </r>
       <r>    1.6213    1.0000 </r>
       <r>    2.1544    1.0000 </r>
       <r>    2.7029    1.0000 </r>
       <r>    2.8197    1.0000 </r>
       <r>    2.8519    1.0000 </r>
       <r>    7.8807    0.0000 </r>
       <r>    8.4977    0.0000 </r>
       <r>    8.6417    0.0000 </r>
       <r>   10.1011    0.0000 </r>
      </set>
      <set comment="kpoint 13">
       <r>  -43.6533    1.0000 </r>
       <r>  -22.0652    1.0000 </r>
       <r>  -21.8248    1.0000 </r>
       <r>  -21.8232    1.0000 </r>
       <r>  -21.7070    1.0000 </r>
       <r>  -12.5959    1.0000 </r>
       <r>  -12.2413    1.0000 </r>
       <r>  -11.6584    1.0000 </r>
       <r>   -7.0501    1.0000 </r>
       <r>   -6.9453    1.0000 </r>
       <r>   -6.8738    1.0000 </r>
       <r>   -0.0485    1.0000 </r>
       <r>    0.7571    1.0000 </r>
       <r>    1.3014    1.0000 </r>
       <r>    1.3547    1.0000 </r>
       <r>    1.5892    1.0000 </r>
       <r>    2.2324    1.0000 </r>
       <r>    2.6280    1.0000 </r>
       <r>    2.7349    1.0000 </r>
       <r>    2.7932    1.0000 </r>
       <r>    7.9829    0.0000 </r>
       <r>    9.1258    0.0000 </r>
       <r>    9.1573    0.0000 </r>
       <r>   10.4687    0.0000 </r>
      </set>
      <set comment="kpoint 14">
       <r>  -43.6526    1.0000 </r>
       <r>  -21.9882    1.0000 </r>
       <r>  -21.9313    1.0000 </r>
       <r>  -21.8265    1.0000 </r>
       <r>  -21.7206    1.0000 </r>
       <r>  -12.4236    1.0000 </r>
       <r>  -11.9385    1.0000 </r>
       <r>  -11.8999    1.0000 </r>
       <r>   -7.1075    1.0000 </r>
       <r>   -7.0851    1.0000 </r>
       <r>   -6.8571    1.0000 </r>
       <r>    0.4101    1.0000 </r>
       <r>    0.4929    1.0000 </r>
       <r>    0.6587    1.0000 </r>
       <r>    1.3024    1.0000 </r>
       <r>    1.3543    1.0000 </r>
       <r>    1.9384    1.0000 </r>
       <r>    2.6713    1.0000 </r>
       <r>    2.8504    1.0000 </r>
       <r>    3.2308    1.0000 </r>
       <r>    8.6715    0.0000 </r>
       <r>    8.7238    0.0000 </r>
       <r>    9.0937    0.0000 </r>
       <r>   10.5221    0.0000 </r>
      </set>
      <set comment="kpoint 15">
       <r>  -43.6519    1.0000 </r>
       <r>  -22.0137    1.0000 </r>
       <r>  -21.9302    1.0000 </r>
       <r>  -21.8210    1.0000 </r>
       <r>  -21.7421    1.0000 </r>
       <r>  -12.4021    1.0000 </r>
       <r>  -11.9286    1.0000 </r>
       <r>  -11.6904    1.0000 </r>
       <r>   -7.1344    1.0000 </r>
       <r>   -7.0815    1.0000 </r>
       <r>   -6.9267    1.0000 </r>
       <r>   -0.0589    1.0000 </r>
       <r>    0.3690    1.0000 </r>
       <r>    0.5149    1.0000 </r>
       <r>    1.2318    1.0000 </r>
       <r>    1.2796    1.0000 </r>
       <r>    1.9616    1.0000 </r>
       <r>    2.7335    1.0000 </r>
       <r>    2.7972    1.0000 </r>
       <r>    3.3334    1.0000 </r>
       <r>    8.7651    0.0000 </r>
       <r>    9.1805    0.0000 </r>
       <r>    9.5889    0.0000 </r>
       <r>   10.2492    0.0000 </r>
      </set>
      <set comment="kpoint 16">
       <r>  -43.6513    1.0000 </r>
       <r>  -21.9814    1.0000 </r>
       <r>  -21.9814    1.0000 </r>
       <r>  -21.8195    1.0000 </r>
       <r>  -21.7661    1.0000 </r>
       <r>  -12.3549    1.0000 </r>
       <r>  -11.7072    1.0000 </r>
       <r>  -11.7072    1.0000 </r>
       <r>   -7.1469    1.0000 </r>
       <r>   -7.1469    1.0000 </r>
       <r>   -6.9802    1.0000 </r>
       <r>   -0.0879    1.0000 </r>
       <r>   -0.0277    1.0000 </r>
       <r>    0.2169    1.0000 </r>
       <r>    1.1977    1.0000 </r>
       <r>    1.1977    1.0000 </r>
       <r>    1.9174    1.0000 </r>
       <r>    2.8573    1.0000 </r>
       <r>    2.8573    1.0000 </r>
       <r>    3.5069    1.0000 </r>
       <r>    9.2041    0.0000 </r>
       <r>    9.2041    0.0000 </r>
       <r>    9.8141    0.0000 </r>
       <r>    9.9783    0.0000 </r>
      </set>
      <set comment="kpoint 17">
       <r>  -43.6513    1.0000 </r>
       <r>  -21.9591    1.0000 </r>
       <r>  -21.9276    1.0000 </r>
       <r>  -21.9276    1.0000 </r>
       <r>  -21.7361    1.0000 </r>
       <r>  -12.0285    1.0000 </r>
       <r>  -11.8615    1.0000 </r>
       <r>  -11.8615    1.0000 </r>
       <r>   -7.2339    1.0000 </r>
       <r>   -7.2339    1.0000 </r>
       <r>   -7.0016    1.0000 </r>
       <r>    0.4775    1.0000 </r>
       <r>    0.4944    1.0000 </r>
       <r>    0.4944    1.0000 </r>
       <r>    0.8891    1.0000 </r>
       <r>    1.1498    1.0000 </r>
       <r>    1.1498    1.0000 </r>
       <r>    3.0865    1.0000 </r>
       <r>    3.0865    1.0000 </r>
       <r>    3.3073    1.0000 </r>
       <r>    9.1558    0.0000 </r>
       <r>    9.1558    0.0000 </r>
       <r>    9.2048    0.0000 </r>
       <r>   10.5977    0.0000 </r>
      </set>
      <set comment="kpoint 18">
       <r>  -43.6506    1.0000 </r>
       <r>  -21.9900    1.0000 </r>
       <r>  -21.9273    1.0000 </r>
       <r>  -21.9258    1.0000 </r>
       <r>  -21.7474    1.0000 </r>
       <r>  -11.9719    1.0000 </r>
       <r>  -11.8416    1.0000 </r>
       <r>  -11.6675    1.0000 </r>
       <r>   -7.2968    1.0000 </r>
       <r>   -7.2456    1.0000 </r>
       <r>   -7.1311    1.0000 </r>
       <r>   -0.0498    1.0000 </r>
       <r>    0.4956    1.0000 </r>
       <r>    0.6177    1.0000 </r>
       <r>    0.6850    1.0000 </r>
       <r>    1.0774    1.0000 </r>
       <r>    1.1989    1.0000 </r>
       <r>    3.1120    1.0000 </r>
       <r>    3.2510    1.0000 </r>
       <r>    3.3937    1.0000 </r>
       <r>    9.1780    0.0000 </r>
       <r>    9.4193    0.0000 </r>
       <r>    9.8370    0.0000 </r>
       <r>   10.0335    0.0000 </r>
      </set>
      <set comment="kpoint 19">
       <r>  -43.6499    1.0000 </r>
       <r>  -21.9775    1.0000 </r>
       <r>  -21.9775    1.0000 </r>
       <r>  -21.9247    1.0000 </r>
       <r>  -21.7507    1.0000 </r>
       <r>  -11.8824    1.0000 </r>
       <r>  -11.6563    1.0000 </r>
       <r>  -11.6563    1.0000 </r>
       <r>   -7.3258    1.0000 </r>
       <r>   -7.3258    1.0000 </r>
       <r>   -7.2773    1.0000 </r>
       <r>   -0.0805    1.0000 </r>
       <r>    0.0021    1.0000 </r>
       <r>    0.5952    1.0000 </r>
       <r>    0.7745    1.0000 </r>
       <r>    1.0922    1.0000 </r>
       <r>    1.0922    1.0000 </r>
       <r>    3.3173    1.0000 </r>
       <r>    3.3173    1.0000 </r>
       <r>    3.5435    1.0000 </r>
       <r>    9.4749    0.0000 </r>
       <r>    9.4749    0.0000 </r>
       <r>    9.5588    0.0000 </r>
       <r>   10.2068    0.0000 </r>
      </set>
      <set comment="kpoint 20">
       <r>  -43.6492    1.0000 </r>
       <r>  -21.9755    1.0000 </r>
       <r>  -21.9755    1.0000 </r>
       <r>  -21.9755    1.0000 </r>
       <r>  -21.7429    1.0000 </r>
       <r>  -11.6302    1.0000 </r>
       <r>  -11.6302    1.0000 </r>
       <r>  -11.6302    1.0000 </r>
       <r>   -7.4140    1.0000 </r>
       <r>   -7.4140    1.0000 </r>
       <r>   -7.4140    1.0000 </r>
       <r>   -0.0768    1.0000 </r>
       <r>   -0.0768    1.0000 </r>
       <r>    0.0912    1.0000 </r>
       <r>    1.0449    1.0000 </r>
       <r>    1.0449    1.0000 </r>
       <r>    1.0449    1.0000 </r>
       <r>    3.5621    1.0000 </r>
       <r>    3.5621    1.0000 </r>
       <r>    3.5621    1.0000 </r>
       <r>    9.4183    0.0000 </r>
       <r>    9.4183    0.0000 </r>
       <r>    9.4183    0.0000 </r>
       <r>   10.2854    0.0000 </r>
      </set>
     </set>
    </set>
   </array>
  </eigenvalues>
  <separator name="orbital magnetization" >
   <v name="MAGDIPOLOUT">      0.00000000      0.00000000      0.00000000</v>
  </separator>
  <dos>
   <i name="efermi">      3.81132209 </i>
   <total>
    <array>
     <dimension dim="1">gridpoints</dimension>
     <dimension dim="2">spin</dimension>
     <field>energy</field>
     <field>total</field>
     <field>integrated</field>
     <set>
      <set comment="spin 1">
       <r>   -46.3702     0.0000     0.0000 </r>
       <r>   -46.1713     0.0000     0.0000 </r>
       <r>   -45.9723     0.0000     0.0000 </r>
       <r>   -45.7734     0.0000     0.0000 </r>
       <r>   -45.5745     0.0000     0.0000 </r>
       <r>   -45.3755     0.0000     0.0000 </r>
       <r>   -45.1766     0.0000     0.0000 </r>
       <r>   -44.9777     0.0000     0.0000 </r>
       <r>   -44.7787     0.0000     0.0000 </r>
       <r>   -44.5798     0.0000     0.0000 </r>
       <r>   -44.3808     0.0000     0.0000 </r>
       <r>   -44.1819     0.0000     0.0000 </r>
       <r>   -43.9830     0.0000     0.0000 </r>
       <r>   -43.7840     0.0011     0.0002 </r>
       <r>   -43.5851     9.7811     1.9460 </r>
       <r>   -43.3862     0.2713     2.0000 </r>
       <r>   -43.1872     0.0000     2.0000 </r>
       <r>   -42.9883     0.0000     2.0000 </r>
       <r>   -42.7894     0.0000     2.0000 </r>
       <r>   -42.5904     0.0000     2.0000 </r>
       <r>   -42.3915     0.0000     2.0000 </r>
       <r>   -42.1926     0.0000     2.0000 </r>
       <r>   -41.9936     0.0000     2.0000 </r>
       <r>   -41.7947     0.0000     2.0000 </r>
       <r>   -41.5957     0.0000     2.0000 </r>
       <r>   -41.3968     0.0000     2.0000 </r>
       <r>   -41.1979     0.0000     2.0000 </r>
       <r>   -40.9989     0.0000     2.0000 </r>
       <r>   -40.8000     0.0000     2.0000 </r>
       <r>   -40.6011     0.0000     2.0000 </r>
       <r>   -40.4021     0.0000     2.0000 </r>
       <r>   -40.2032     0.0000     2.0000 </r>
       <r>   -40.0043     0.0000     2.0000 </r>
       <r>   -39.8053     0.0000     2.0000 </r>
       <r>   -39.6064     0.0000     2.0000 </r>
       <r>   -39.4075     0.0000     2.0000 </r>
       <r>   -39.2085     0.0000     2.0000 </r>
       <r>   -39.0096     0.0000     2.0000 </r>
       <r>   -38.8106     0.0000     2.0000 </r>
       <r>   -38.6117     0.0000     2.0000 </r>
       <r>   -38.4128     0.0000     2.0000 </r>
       <r>   -38.2138     0.0000     2.0000 </r>
       <r>   -38.0149     0.0000     2.0000 </r>
       <r>   -37.8160     0.0000     2.0000 </r>
       <r>   -37.6170     0.0000     2.0000 </r>
       <r>   -37.4181     0.0000     2.0000 </r>
       <r>   -37.2192     0.0000     2.0000 </r>
       <r>   -37.0202     0.0000     2.0000 </r>
       <r>   -36.8213     0.0000     2.0000 </r>
       <r>   -36.6224     0.0000     2.0000 </r>
       <r>   -36.4234     0.0000     2.0000 </r>
       <r>   -36.2245     0.0000     2.0000 </r>
       <r>   -36.0256     0.0000     2.0000 </r>
       <r>   -35.8266     0.0000     2.0000 </r>
       <r>   -35.6277     0.0000     2.0000 </r>
       <r>   -35.4287     0.0000     2.0000 </r>
       <r>   -35.2298     0.0000     2.0000 </r>
       <r>   -35.0309     0.0000     2.0000 </r>
       <r>   -34.8319     0.0000     2.0000 </r>
       <r>   -34.6330     0.0000     2.0000 </r>
       <r>   -34.4341     0.0000     2.0000 </r>
       <r>   -34.2351     0.0000     2.0000 </r>
       <r>   -34.0362     0.0000     2.0000 </r>
       <r>   -33.8373     0.0000     2.0000 </r>
       <r>   -33.6383     0.0000     2.0000 </r>
       <r>   -33.4394     0.0000     2.0000 </r>
       <r>   -33.2405     0.0000     2.0000 </r>
       <r>   -33.0415     0.0000     2.0000 </r>
       <r>   -32.8426     0.0000     2.0000 </r>
       <r>   -32.6436     0.0000     2.0000 </r>
       <r>   -32.4447     0.0000     2.0000 </r>
       <r>   -32.2458     0.0000     2.0000 </r>
       <r>   -32.0468     0.0000     2.0000 </r>
       <r>   -31.8479     0.0000     2.0000 </r>
       <r>   -31.6490     0.0000     2.0000 </r>
       <r>   -31.4500     0.0000     2.0000 </r>
       <r>   -31.2511     0.0000     2.0000 </r>
       <r>   -31.0522     0.0000     2.0000 </r>
       <r>   -30.8532     0.0000     2.0000 </r>
       <r>   -30.6543     0.0000     2.0000 </r>
       <r>   -30.4554     0.0000     2.0000 </r>
       <r>   -30.2564     0.0000     2.0000 </r>
       <r>   -30.0575     0.0000     2.0000 </r>
       <r>   -29.8585     0.0000     2.0000 </r>
       <r>   -29.6596     0.0000     2.0000 </r>
       <r>   -29.4607     0.0000     2.0000 </r>
       <r>   -29.2617     0.0000     2.0000 </r>
       <r>   -29.0628     0.0000     2.0000 </r>
       <r>   -28.8639     0.0000     2.0000 </r>
       <r>   -28.6649     0.0000     2.0000 </r>
       <r>   -28.4660     0.0000     2.0000 </r>
       <r>   -28.2671     0.0000     2.0000 </r>
       <r>   -28.0681     0.0000     2.0000 </r>
       <r>   -27.8692     0.0000     2.0000 </r>
       <r>   -27.6703     0.0000     2.0000 </r>
       <r>   -27.4713     0.0000     2.0000 </r>
       <r>   -27.2724     0.0000     2.0000 </r>
       <r>   -27.0734     0.0000     2.0000 </r>
       <r>   -26.8745     0.0000     2.0000 </r>
       <r>   -26.6756     0.0000     2.0000 </r>
       <r>   -26.4766     0.0000     2.0000 </r>
       <r>   -26.2777     0.0000     2.0000 </r>
       <r>   -26.0788     0.0000     2.0000 </r>
       <r>   -25.8798     0.0000     2.0000 </r>
       <r>   -25.6809     0.0000     2.0000 </r>
       <r>   -25.4820     0.0000     2.0000 </r>
       <r>   -25.2830     0.0000     2.0000 </r>
       <r>   -25.0841     0.0000     2.0000 </r>
       <r>   -24.8852     0.0000     2.0000 </r>
       <r>   -24.6862     0.0000     2.0000 </r>
       <r>   -24.4873     0.0000     2.0000 </r>
       <r>   -24.2883     0.0000     2.0000 </r>
       <r>   -24.0894     0.0000     2.0000 </r>
       <r>   -23.8905     0.0000     2.0000 </r>
       <r>   -23.6915     0.0000     2.0000 </r>
       <r>   -23.4926     0.0000     2.0000 </r>
       <r>   -23.2937     0.0000     2.0000 </r>
       <r>   -23.0947     0.0000     2.0000 </r>
       <r>   -22.8958     0.0000     2.0000 </r>
       <r>   -22.6969     0.0000     2.0000 </r>
       <r>   -22.4979     0.0000     2.0000 </r>
       <r>   -22.2990     0.0000     2.0000 </r>
       <r>   -22.1001     0.4948     2.0984 </r>
       <r>   -21.9011    14.6874     5.0203 </r>
       <r>   -21.7022    21.2289     9.2435 </r>
       <r>   -21.5032     3.8029    10.0000 </r>
       <r>   -21.3043     0.0000    10.0000 </r>
       <r>   -21.1054     0.0000    10.0000 </r>
       <r>   -20.9064     0.0000    10.0000 </r>
       <r>   -20.7075     0.0000    10.0000 </r>
       <r>   -20.5086     0.0000    10.0000 </r>
       <r>   -20.3096     0.0000    10.0000 </r>
       <r>   -20.1107     0.0000    10.0000 </r>
       <r>   -19.9118     0.0000    10.0000 </r>
       <r>   -19.7128     0.0000    10.0000 </r>
       <r>   -19.5139     0.0000    10.0000 </r>
       <r>   -19.3150     0.0000    10.0000 </r>
       <r>   -19.1160     0.0000    10.0000 </r>
       <r>   -18.9171     0.0000    10.0000 </r>
       <r>   -18.7181     0.0000    10.0000 </r>
       <r>   -18.5192     0.0000    10.0000 </r>
       <r>   -18.3203     0.0000    10.0000 </r>
       <r>   -18.1213     0.0000    10.0000 </r>
       <r>   -17.9224     0.0000    10.0000 </r>
       <r>   -17.7235     0.0000    10.0000 </r>
       <r>   -17.5245     0.0000    10.0000 </r>
       <r>   -17.3256     0.0000    10.0000 </r>
       <r>   -17.1267     0.0000    10.0000 </r>
       <r>   -16.9277     0.0000    10.0000 </r>
       <r>   -16.7288     0.0000    10.0000 </r>
       <r>   -16.5299     0.0000    10.0000 </r>
       <r>   -16.3309     0.0000    10.0000 </r>
       <r>   -16.1320     0.0000    10.0000 </r>
       <r>   -15.9330     0.0000    10.0000 </r>
       <r>   -15.7341     0.0000    10.0000 </r>
       <r>   -15.5352     0.0000    10.0000 </r>
       <r>   -15.3362     0.0000    10.0000 </r>
       <r>   -15.1373     0.0000    10.0000 </r>
       <r>   -14.9384     0.0000    10.0000 </r>
       <r>   -14.7394     0.0000    10.0000 </r>
       <r>   -14.5405     0.0000    10.0000 </r>
       <r>   -14.3416     0.0000    10.0000 </r>
       <r>   -14.1426     0.0000    10.0000 </r>
       <r>   -13.9437     0.0000    10.0000 </r>
       <r>   -13.7448     0.0000    10.0000 </r>
       <r>   -13.5458     0.0000    10.0000 </r>
       <r>   -13.3469     0.0000    10.0000 </r>
       <r>   -13.1479     0.0000    10.0000 </r>
       <r>   -12.9490     0.0056    10.0011 </r>
       <r>   -12.7501     1.3078    10.2613 </r>
       <r>   -12.5511     4.4531    11.1472 </r>
       <r>   -12.3522     4.0275    11.9484 </r>
       <r>   -12.1533     5.2790    12.9986 </r>
       <r>   -11.9543     2.1379    13.4239 </r>
       <r>   -11.7554     8.1155    15.0383 </r>
       <r>   -11.5565     4.8176    15.9967 </r>
       <r>   -11.3575     0.0166    16.0000 </r>
       <r>   -11.1586     0.0000    16.0000 </r>
       <r>   -10.9597     0.0000    16.0000 </r>
       <r>   -10.7607     0.0000    16.0000 </r>
       <r>   -10.5618     0.0000    16.0000 </r>
       <r>   -10.3628     0.0000    16.0000 </r>
       <r>   -10.1639     0.0000    16.0000 </r>
       <r>    -9.9650     0.0000    16.0000 </r>
       <r>    -9.7660     0.0000    16.0000 </r>
       <r>    -9.5671     0.0000    16.0000 </r>
       <r>    -9.3682     0.0000    16.0000 </r>
       <r>    -9.1692     0.0000    16.0000 </r>
       <r>    -8.9703     0.0000    16.0000 </r>
       <r>    -8.7714     0.0000    16.0000 </r>
       <r>    -8.5724     0.0000    16.0000 </r>
       <r>    -8.3735     0.0000    16.0000 </r>
       <r>    -8.1746     0.0000    16.0000 </r>
       <r>    -7.9756     0.0000    16.0000 </r>
       <r>    -7.7767     0.0000    16.0000 </r>
       <r>    -7.5777     0.0000    16.0000 </r>
       <r>    -7.3788     0.1609    16.0320 </r>
       <r>    -7.1799     2.8985    16.6086 </r>
       <r>    -6.9809    12.5858    19.1124 </r>
       <r>    -6.7820    14.0501    21.9074 </r>
       <r>    -6.5831     0.4653    22.0000 </r>
       <r>    -6.3841     0.0000    22.0000 </r>
       <r>    -6.1852     0.0000    22.0000 </r>
       <r>    -5.9863     0.0000    22.0000 </r>
       <r>    -5.7873     0.0000    22.0000 </r>
       <r>    -5.5884     0.0000    22.0000 </r>
       <r>    -5.3895     0.0000    22.0000 </r>
       <r>    -5.1905     0.0000    22.0000 </r>
       <r>    -4.9916     0.0000    22.0000 </r>
       <r>    -4.7926     0.0000    22.0000 </r>
       <r>    -4.5937     0.0000    22.0000 </r>
       <r>    -4.3948     0.0000    22.0000 </r>
       <r>    -4.1958     0.0000    22.0000 </r>
       <r>    -3.9969     0.0000    22.0000 </r>
       <r>    -3.7980     0.0000    22.0000 </r>
       <r>    -3.5990     0.0000    22.0000 </r>
       <r>    -3.4001     0.0000    22.0000 </r>
       <r>    -3.2012     0.0000    22.0000 </r>
       <r>    -3.0022     0.0000    22.0000 </r>
       <r>    -2.8033     0.0000    22.0000 </r>
       <r>    -2.6044     0.0000    22.0000 </r>
       <r>    -2.4054     0.0000    22.0000 </r>
       <r>    -2.2065     0.0000    22.0000 </r>
       <r>    -2.0075     0.0000    22.0000 </r>
       <r>    -1.8086     0.0000    22.0000 </r>
       <r>    -1.6097     0.0000    22.0000 </r>
       <r>    -1.4107     0.0000    22.0000 </r>
       <r>    -1.2118     0.0000    22.0000 </r>
       <r>    -1.0129     0.0000    22.0000 </r>
       <r>    -0.8139     0.0000    22.0000 </r>
       <r>    -0.6150     0.0000    22.0000 </r>
       <r>    -0.4161     0.0000    22.0000 </r>
       <r>    -0.2171     0.0001    22.0000 </r>
       <r>    -0.0182     4.1137    22.8184 </r>
       <r>     0.1807     1.3528    23.0875 </r>
       <r>     0.3797     1.6930    23.4243 </r>
       <r>     0.5786     9.4890    25.3120 </r>
       <r>     0.7776     3.3086    25.9702 </r>
       <r>     0.9765     2.2002    26.4079 </r>
       <r>     1.1754     3.5933    27.1227 </r>
       <r>     1.3744     7.0422    28.5237 </r>
       <r>     1.5733     6.6915    29.8549 </r>
       <r>     1.7722     5.9992    31.0483 </r>
       <r>     1.9712     5.8764    32.2173 </r>
       <r>     2.1701     4.1451    33.0420 </r>
       <r>     2.3690     3.1973    33.6780 </r>
       <r>     2.5680     2.8496    34.2449 </r>
       <r>     2.7669     8.2932    35.8947 </r>
       <r>     2.9658    10.0579    37.8956 </r>
       <r>     3.1648     3.6283    38.6174 </r>
       <r>     3.3637     5.2601    39.6638 </r>
       <r>     3.5627     1.5202    39.9662 </r>
       <r>     3.7616     0.1698    40.0000 </r>
       <r>     3.9605     0.0000    40.0000 </r>
       <r>     4.1595     0.0000    40.0000 </r>
       <r>     4.3584     0.0000    40.0000 </r>
       <r>     4.5573     0.0000    40.0000 </r>
       <r>     4.7563     0.0000    40.0000 </r>
       <r>     4.9552     0.0000    40.0000 </r>
       <r>     5.1541     0.0000    40.0000 </r>
       <r>     5.3531     0.0000    40.0000 </r>
       <r>     5.5520     0.0000    40.0000 </r>
       <r>     5.7509     0.0000    40.0000 </r>
       <r>     5.9499     0.0000    40.0000 </r>
       <r>     6.1488     0.0000    40.0000 </r>
       <r>     6.3478     0.0000    40.0000 </r>
       <r>     6.5467     0.0000    40.0000 </r>
       <r>     6.7456     0.2013    40.0401 </r>
       <r>     6.9446     0.2687    40.0935 </r>
       <r>     7.1435     0.3560    40.1643 </r>
       <r>     7.3424     1.2097    40.4050 </r>
       <r>     7.5414     1.5716    40.7176 </r>
       <r>     7.7403     1.9755    41.1106 </r>
       <r>     7.9392     1.4048    41.3901 </r>
       <r>     8.1382     0.5595    41.5014 </r>
       <r>     8.3371     0.0516    41.5116 </r>
       <r>     8.5360     4.5934    42.4254 </r>
       <r>     8.7350     4.3655    43.2939 </r>
       <r>     8.9339     1.4445    43.5813 </r>
       <r>     9.1329     4.8881    44.5537 </r>
       <r>     9.3318     3.9795    45.3453 </r>
       <r>     9.5307     2.4256    45.8279 </r>
       <r>     9.7297     1.4384    46.1140 </r>
       <r>     9.9286     2.3647    46.5844 </r>
       <r>    10.1275     1.7749    46.9375 </r>
       <r>    10.3265     2.7212    47.4789 </r>
       <r>    10.5254     1.7075    47.8186 </r>
       <r>    10.7243     0.9120    48.0000 </r>
       <r>    10.9233     0.0001    48.0000 </r>
       <r>    11.1222     0.0000    48.0000 </r>
       <r>    11.3211     0.0000    48.0000 </r>
       <r>    11.5201     0.0000    48.0000 </r>
       <r>    11.7190     0.0000    48.0000 </r>
       <r>    11.9180     0.0000    48.0000 </r>
       <r>    12.1169     0.0000    48.0000 </r>
       <r>    12.3158     0.0000    48.0000 </r>
       <r>    12.5148     0.0000    48.0000 </r>
       <r>    12.7137     0.0000    48.0000 </r>
       <r>    12.9126     0.0000    48.0000 </r>
       <r>    13.1116     0.0000    48.0000 </r>
       <r>    13.3105     0.0000    48.0000 </r>
      </set>
     </set>
    </array>
   </total>
   <partial>
    <array>
     <dimension dim="1">gridpoints</dimension>
     <dimension dim="2">spin</dimension>
     <dimension dim="3">ion</dimension>
     <field>energy</field>
     <field>    s</field>
     <field>   py</field>
     <field>   pz</field>
     <field>   px</field>
     <field>  dxy</field>
     <field>  dyz</field>
     <field>  dz2</field>
     <field>  dxz</field>
     <field>x2-y2</field>
     <set>
      <set comment="ion 1">
       <set comment="spin 1">
        <r>   -46.3702     0.0000     0.0000     0.0000     0.0000     0.0000     0.0000     0.0000     0.0000     0.0000 </r>
        <r>   -46.1713     0.0000     0.0000     0.0000     0.0000     0.0000     0.0000     0.0000     0.0000     0.0000 </r>
        <r>   -45.9723     0.0000     0.0000     0.0000     0.0000     0.0000     0.0000     0.0000     0.0000     0.0000 </r>
        <r>   -45.7734     0.0000     0.0000     0.0000     0.0000     0.0000     0.0000     0.0000     0.0000     0.0000 </r>
        <r>   -45.5745     0.0000     0.0000     0.0000     0.0000     0.0000     0.0000     0.0000     0.0000     0.0000 </r>
        <r>   -45.3755     0.0000     0.0000     0.0000     0.0000     0.0000     0.0000     0.0000     0.0000     0.0000 </r>
        <r>   -45.1766     0.0000     0.0000     0.0000     0.0000     0.0000     0.0000     0.0000     0.0000     0.0000 </r>
        <r>   -44.9777     0.0000     0.0000     0.0000     0.0000     0.0000     0.0000     0.0000     0.0000     0.0000 </r>
        <r>   -44.7787     0.0000     0.0000     0.0000     0.0000     0.0000     0.0000     0.0000     0.0000     0.0000 </r>
        <r>   -44.5798     0.0000     0.0000     0.0000     0.0000     0.0000     0.0000     0.0000     0.0000     0.0000 </r>
        <r>   -44.3808     0.0000     0.0000     0.0000     0.0000     0.0000     0.0000     0.0000     0.0000     0.0000 </r>
        <r>   -44.1819     0.0000     0.0000     0.0000     0.0000     0.0000     0.0000     0.0000     0.0000     0.0000 </r>
        <r>   -43.9830     0.0000     0.0000     0.0000     0.0000     0.0000     0.0000     0.0000     0.0000     0.0000 </r>
        <r>   -43.7840     0.0000     0.0000     0.0000     0.0000     0.0000     0.0000     0.0000     0.0000     0.0000 </r>
        <r>   -43.5851     0.0000     0.0000     0.0000     0.0000     0.0000     0.0000     0.0000     0.0000     0.0000 </r>
        <r>   -43.3862     0.0000     0.0000     0.0000     0.0000     0.0000     0.0000     0.0000     0.0000     0.0000 </r>
        <r>   -43.1872     0.0000     0.0000     0.0000     0.0000     0.0000     0.0000     0.0000     0.0000     0.0000 </r>
        <r>   -42.9883     0.0000     0.0000     0.0000     0.0000     0.0000     0.0000     0.0000     0.0000     0.0000 </r>
        <r>   -42.7894     0.0000     0.0000     0.0000     0.0000     0.0000     0.0000     0.0000     0.0000     0.0000 </r>
        <r>   -42.5904     0.0000     0.0000     0.0000     0.0000     0.0000     0.0000     0.0000     0.0000     0.0000 </r>
        <r>   -42.3915     0.0000     0.0000     0.0000     0.0000     0.0000     0.0000     0.0000     0.0000     0.0000 </r>
        <r>   -42.1926     0.0000     0.0000     0.0000     0.0000     0.0000     0.0000     0.0000     0.0000     0.0000 </r>
        <r>   -41.9936     0.0000     0.0000     0.0000     0.0000     0.0000     0.0000     0.0000     0.0000     0.0000 </r>
        <r>   -41.7947     0.0000     0.0000     0.0000     0.0000     0.0000     0.0000     0.0000     0.0000     0.0000 </r>
        <r>   -41.5957     0.0000     0.0000     0.0000     0.0000     0.0000     0.0000     0.0000     0.0000     0.0000 </r>
        <r>   -41.3968     0.0000     0.0000     0.0000     0.0000     0.0000     0.0000     0.0000     0.0000     0.0000 </r>
        <r>   -41.1979     0.0000     0.0000     0.0000     0.0000     0.0000     0.0000     0.0000     0.0000     0.0000 </r>
        <r>   -40.9989     0.0000     0.0000     0.0000     0.0000     0.0000     0.0000     0.0000     0.0000     0.0000 </r>
        <r>   -40.8000     0.0000     0.0000     0.0000     0.0000     0.0000     0.0000     0.0000     0.0000     0.0000 </r>
        <r>   -40.6011     0.0000     0.0000     0.0000     0.0000     0.0000     0.0000     0.0000     0.0000     0.0000 </r>
        <r>   -40.4021     0.0000     0.0000     0.0000     0.0000     0.0000     0.0000     0.0000     0.0000     0.0000 </r>
        <r>   -40.2032     0.0000     0.0000     0.0000     0.0000     0.0000     0.0000     0.0000     0.0000     0.0000 </r>
        <r>   -40.0043     0.0000     0.0000     0.0000     0.0000     0.0000     0.0000     0.0000     0.0000     0.0000 </r>
        <r>   -39.8053     0.0000     0.0000     0.0000     0.0000     0.0000     0.0000     0.0000     0.0000     0.0000 </r>
        <r>   -39.6064     0.0000     0.0000     0.0000     0.0000     0.0000     0.0000     0.0000     0.0000     0.0000 </r>
        <r>   -39.4075     0.0000     0.0000     0.0000     0.0000     0.0000     0.0000     0.0000     0.0000     0.0000 </r>
        <r>   -39.2085     0.0000     0.0000     0.0000     0.0000     0.0000     0.0000     0.0000     0.0000     0.0000 </r>
        <r>   -39.0096     0.0000     0.0000     0.0000     0.0000     0.0000     0.0000     0.0000     0.0000     0.0000 </r>
        <r>   -38.8106     0.0000     0.0000     0.0000     0.0000     0.0000     0.0000     0.0000     0.0000     0.0000 </r>
        <r>   -38.6117     0.0000     0.0000     0.0000     0.0000     0.0000     0.0000     0.0000     0.0000     0.0000 </r>
        <r>   -38.4128     0.0000     0.0000     0.0000     0.0000     0.0000     0.0000     0.0000     0.0000     0.0000 </r>
        <r>   -38.2138     0.0000     0.0000     0.0000     0.0000     0.0000     0.0000     0.0000     0.0000     0.0000 </r>
        <r>   -38.0149     0.0000     0.0000     0.0000     0.0000     0.0000     0.0000     0.0000     0.0000     0.0000 </r>
        <r>   -37.8160     0.0000     0.0000     0.0000     0.0000     0.0000     0.0000     0.0000     0.0000     0.0000 </r>
        <r>   -37.6170     0.0000     0.0000     0.0000     0.0000     0.0000     0.0000     0.0000     0.0000     0.0000 </r>
        <r>   -37.4181     0.0000     0.0000     0.0000     0.0000     0.0000     0.0000     0.0000     0.0000     0.0000 </r>
        <r>   -37.2192     0.0000     0.0000     0.0000     0.0000     0.0000     0.0000     0.0000     0.0000     0.0000 </r>
        <r>   -37.0202     0.0000     0.0000     0.0000     0.0000     0.0000     0.0000     0.0000     0.0000     0.0000 </r>
        <r>   -36.8213     0.0000     0.0000     0.0000     0.0000     0.0000     0.0000     0.0000     0.0000     0.0000 </r>
        <r>   -36.6224     0.0000     0.0000     0.0000     0.0000     0.0000     0.0000     0.0000     0.0000     0.0000 </r>
        <r>   -36.4234     0.0000     0.0000     0.0000     0.0000     0.0000     0.0000     0.0000     0.0000     0.0000 </r>
        <r>   -36.2245     0.0000     0.0000     0.0000     0.0000     0.0000     0.0000     0.0000     0.0000     0.0000 </r>
        <r>   -36.0256     0.0000     0.0000     0.0000     0.0000     0.0000     0.0000     0.0000     0.0000     0.0000 </r>
        <r>   -35.8266     0.0000     0.0000     0.0000     0.0000     0.0000     0.0000     0.0000     0.0000     0.0000 </r>
        <r>   -35.6277     0.0000     0.0000     0.0000     0.0000     0.0000     0.0000     0.0000     0.0000     0.0000 </r>
        <r>   -35.4287     0.0000     0.0000     0.0000     0.0000     0.0000     0.0000     0.0000     0.0000     0.0000 </r>
        <r>   -35.2298     0.0000     0.0000     0.0000     0.0000     0.0000     0.0000     0.0000     0.0000     0.0000 </r>
        <r>   -35.0309     0.0000     0.0000     0.0000     0.0000     0.0000     0.0000     0.0000     0.0000     0.0000 </r>
        <r>   -34.8319     0.0000     0.0000     0.0000     0.0000     0.0000     0.0000     0.0000     0.0000     0.0000 </r>
        <r>   -34.6330     0.0000     0.0000     0.0000     0.0000     0.0000     0.0000     0.0000     0.0000     0.0000 </r>
        <r>   -34.4341     0.0000     0.0000     0.0000     0.0000     0.0000     0.0000     0.0000     0.0000     0.0000 </r>
        <r>   -34.2351     0.0000     0.0000     0.0000     0.0000     0.0000     0.0000     0.0000     0.0000     0.0000 </r>
        <r>   -34.0362     0.0000     0.0000     0.0000     0.0000     0.0000     0.0000     0.0000     0.0000     0.0000 </r>
[...]
        <r>  0.0000  0.0000  0.0000  0.0082  0.0000  0.0000  0.0000  0.0000  0.0000 </r>
        <r>  0.0000  0.0000  0.0000  0.0000  0.0000  0.0000  0.0000  0.0000  0.0000 </r>
        <r>  0.0102  0.0000  0.0067  0.0000  0.0000  0.0000  0.0000  0.0000  0.0000 </r>
       </set>
       <set comment="band 11">
        <r>  0.0002  0.0000  0.8624  0.0000  0.0000  0.0000  0.0002  0.0000  0.0000 </r>
        <r>  0.0000  0.0000  0.0000  0.0000  0.0038  0.0000  0.0000  0.0000  0.0000 </r>
        <r>  0.0000  0.0000  0.0000  0.0000  0.0000  0.0000  0.0000  0.0000  0.0000 </r>
        <r>  0.0000  0.0000  0.0000  0.0070  0.0000  0.0000  0.0000  0.0000  0.0000 </r>
        <r>  0.0000  0.0070  0.0000  0.0000  0.0000  0.0000  0.0000  0.0000  0.0000 </r>
       </set>
       <set comment="band 12">
        <r>  0.0000  0.0000  0.0000  0.0000  0.0000  0.0000  0.0000  0.0000  0.0000 </r>
        <r>  0.0000  0.0000  0.0000  0.0000  0.0000  0.0000  0.0000  0.0000  0.3113 </r>
        <r>  0.0000  0.0000  0.0000  0.0000  0.0000  0.0000  0.0000  0.0000  0.0000 </r>
        <r>  0.0000  0.2642  0.0000  0.0000  0.0000  0.0000  0.0000  0.0000  0.0000 </r>
        <r>  0.0000  0.0000  0.0000  0.2642  0.0000  0.0000  0.0000  0.0000  0.0000 </r>
       </set>
       <set comment="band 13">
        <r>  0.0000  0.0000  0.0000  0.0000  0.0021  0.0000  0.0000  0.0000  0.0000 </r>
        <r>  0.0863  0.0000  0.0003  0.0000  0.0000  0.0000  0.1471  0.0000  0.0000 </r>
        <r>  0.0001  0.0000  0.0119  0.0000  0.0000  0.0000  0.0000  0.0000  0.0000 </r>
        <r>  0.0000  0.2581  0.0000  0.0000  0.0000  0.0000  0.0000  0.0000  0.0000 </r>
        <r>  0.0000  0.0000  0.0000  0.2581  0.0000  0.0000  0.0000  0.0000  0.0000 </r>
       </set>
       <set comment="band 14">
        <r>  0.0000  0.0000  0.0000  0.0000  0.0000  0.0000  0.0000  0.0000  0.0000 </r>
        <r>  0.0665  0.0000  0.0157  0.0000  0.0000  0.0000  0.1294  0.0000  0.0000 </r>
        <r>  0.0049  0.0000  0.5390  0.0000  0.0000  0.0000  0.0000  0.0000  0.0000 </r>
        <r>  0.0000  0.0063  0.0000  0.0000  0.0000  0.0000  0.0000  0.0000  0.0000 </r>
        <r>  0.0000  0.0000  0.0000  0.0063  0.0000  0.0000  0.0000  0.0000  0.0000 </r>
       </set>
       <set comment="band 15">
        <r>  0.0064  0.0000  0.0822  0.0000  0.0000  0.0000  0.0053  0.0000  0.0000 </r>
        <r>  0.0000  0.0000  0.0000  0.0000  0.1223  0.0000  0.0000  0.0000  0.0000 </r>
        <r>  0.0000  0.0000  0.0000  0.0000  0.0000  0.0000  0.0000  0.0000  0.0000 </r>
        <r>  0.0000  0.0000  0.0000  0.2195  0.0000  0.0000  0.0000  0.0000  0.0000 </r>
        <r>  0.0000  0.2195  0.0000  0.0000  0.0000  0.0000  0.0000  0.0000  0.0000 </r>
       </set>
       <set comment="band 16">
        <r>  0.0000  0.0000  0.0000  0.0872  0.0000  0.0000  0.0000  0.0074  0.0000 </r>
        <r>  0.0000  0.0002  0.0000  0.0000  0.0000  0.1222  0.0000  0.0000  0.0000 </r>
        <r>  0.0000  0.1917  0.0000  0.0000  0.0000  0.0000  0.0000  0.0000  0.0000 </r>
        <r>  0.0001  0.0000  0.2638  0.0000  0.0000  0.0000  0.0000  0.0000  0.0000 </r>
        <r>  0.0000  0.0000  0.0000  0.0000  0.0000  0.0000  0.0000  0.0000  0.0000 </r>
       </set>
       <set comment="band 17">
        <r>  0.0000  0.0872  0.0000  0.0000  0.0000  0.0074  0.0000  0.0000  0.0000 </r>
        <r>  0.0000  0.0000  0.0000  0.0002  0.0000  0.0000  0.0000  0.1222  0.0000 </r>
        <r>  0.0000  0.0000  0.0000  0.1917  0.0000  0.0000  0.0000  0.0000  0.0000 </r>
        <r>  0.0000  0.0000  0.0000  0.0000  0.0000  0.0000  0.0000  0.0000  0.0000 </r>
        <r>  0.0001  0.0000  0.2638  0.0000  0.0000  0.0000  0.0000  0.0000  0.0000 </r>
       </set>
       <set comment="band 18">
        <r>  0.0000  0.0022  0.0000  0.0000  0.0000  0.0101  0.0000  0.0000  0.0000 </r>
        <r>  0.0000  0.0000  0.0000  0.0011  0.0000  0.0000  0.0000  0.0001  0.0000 </r>
        <r>  0.0000  0.0012  0.0000  0.4086  0.0000  0.0000  0.0000  0.0000  0.0000 </r>
        <r>  0.0000  0.0000  0.0008  0.0000  0.0000  0.0000  0.0000  0.0000  0.0000 </r>
        <r>  0.0014  0.0000  0.2920  0.0000  0.0000  0.0000  0.0000  0.0000  0.0000 </r>
       </set>
       <set comment="band 19">
        <r>  0.0000  0.0000  0.0000  0.0022  0.0000  0.0000  0.0000  0.0101  0.0000 </r>
        <r>  0.0000  0.0011  0.0000  0.0000  0.0000  0.0001  0.0000  0.0000  0.0000 </r>
        <r>  0.0000  0.4086  0.0000  0.0012  0.0000  0.0000  0.0000  0.0000  0.0000 </r>
        <r>  0.0014  0.0000  0.2920  0.0000  0.0000  0.0000  0.0000  0.0000  0.0000 </r>
        <r>  0.0000  0.0000  0.0008  0.0000  0.0000  0.0000  0.0000  0.0000  0.0000 </r>
       </set>
       <set comment="band 20">
        <r>  0.0000  0.0000  0.0000  0.0000  0.0000  0.0000  0.0000  0.0000  0.0039 </r>
        <r>  0.0000  0.0000  0.0000  0.0000  0.0000  0.0000  0.0000  0.0000  0.0000 </r>
        <r>  0.0000  0.0000  0.0000  0.0000  0.0000  0.0000  0.0000  0.0000  0.0000 </r>
        <r>  0.0000  0.0000  0.0000  0.3671  0.0000  0.0000  0.0000  0.0000  0.0000 </r>
        <r>  0.0000  0.3671  0.0000  0.0000  0.0000  0.0000  0.0000  0.0000  0.0000 </r>
       </set>
       <set comment="band 21">
        <r>  0.0000  0.0000  0.0000  0.0037  0.0000  0.0000  0.0000  0.2284  0.0000 </r>
        <r>  0.0000  0.0070  0.0000  0.0000  0.0000  0.3052  0.0000  0.0000  0.0000 </r>
        <r>  0.0000  0.0153  0.0000  0.0000  0.0000  0.0000  0.0000  0.0000  0.0000 </r>
        <r>  0.0238  0.0000  0.1278  0.0000  0.0000  0.0000  0.0000  0.0000  0.0000 </r>
        <r>  0.0000  0.0000  0.0000  0.0000  0.0000  0.0000  0.0000  0.0000  0.0000 </r>
       </set>
       <set comment="band 22">
        <r>  0.0000  0.0037  0.0000  0.0000  0.0000  0.2284  0.0000  0.0000  0.0000 </r>
        <r>  0.0000  0.0000  0.0000  0.0070  0.0000  0.0000  0.0000  0.3051  0.0000 </r>
        <r>  0.0000  0.0000  0.0000  0.0153  0.0000  0.0000  0.0000  0.0000  0.0000 </r>
        <r>  0.0000  0.0000  0.0000  0.0000  0.0000  0.0000  0.0000  0.0000  0.0000 </r>
        <r>  0.0238  0.0000  0.1278  0.0000  0.0000  0.0000  0.0000  0.0000  0.0000 </r>
       </set>
       <set comment="band 23">
        <r>  0.0000  0.0000  0.0000  0.0000  0.4990  0.0000  0.0000  0.0000  0.0000 </r>
        <r>  0.0005  0.0000  0.0117  0.0000  0.0000  0.0000  0.0039  0.0000  0.0000 </r>
        <r>  0.0573  0.0000  0.0005  0.0000  0.0000  0.0000  0.0000  0.0000  0.0000 </r>
        <r>  0.0000  0.0053  0.0000  0.0000  0.0000  0.0000  0.0000  0.0000  0.0000 </r>
        <r>  0.0000  0.0000  0.0000  0.0053  0.0000  0.0000  0.0000  0.0000  0.0000 </r>
       </set>
       <set comment="band 24">
        <r>  0.0002  0.0000  0.0002  0.0000  0.0000  0.0000  0.0320  0.0000  0.0000 </r>
        <r>  0.0000  0.0000  0.0000  0.0000  0.6911  0.0000  0.0000  0.0000  0.0000 </r>
        <r>  0.0000  0.0000  0.0000  0.0000  0.0000  0.0000  0.0000  0.0000  0.0000 </r>
        <r>  0.0000  0.0000  0.0000  0.0775  0.0000  0.0000  0.0000  0.0000  0.0000 </r>
        <r>  0.0000  0.0775  0.0000  0.0000  0.0000  0.0000  0.0000  0.0000  0.0000 </r>
       </set>
      </set>
      <set comment="kpoint 20">
       <set comment="band 1">
        <r>  0.0000  0.0000  0.0000  0.0000  0.0000  0.0000  0.0000  0.0000  0.0000 </r>
        <r>  0.9918  0.0000  0.0000  0.0000  0.0000  0.0000  0.0000  0.0000  0.0000 </r>
        <r>  0.0000  0.0000  0.0005  0.0000  0.0000  0.0000  0.0000  0.0000  0.0000 </r>
        <r>  0.0000  0.0005  0.0000  0.0000  0.0000  0.0000  0.0000  0.0000  0.0000 </r>
        <r>  0.0000  0.0000  0.0000  0.0005  0.0000  0.0000  0.0000  0.0000  0.0000 </r>
       </set>
       <set comment="band 2">
        <r>  0.0000  0.0000  0.0000  0.0000  0.0000  0.0000  0.0000  0.0002  0.0000 </r>
        <r>  0.0000  0.9222  0.0000  0.0000  0.0000  0.0000  0.0000  0.0000  0.0000 </r>
        <r>  0.0000  0.0000  0.0000  0.0000  0.0000  0.0000  0.0000  0.0000  0.0000 </r>
        <r>  0.0346  0.0000  0.0000  0.0000  0.0000  0.0000  0.0000  0.0000  0.0000 </r>
        <r>  0.0000  0.0000  0.0000  0.0000  0.0000  0.0000  0.0000  0.0000  0.0000 </r>
       </set>
       <set comment="band 3">
        <r>  0.0000  0.0000  0.0000  0.0000  0.0000  0.0002  0.0000  0.0000  0.0000 </r>
        <r>  0.0000  0.0000  0.0000  0.9222  0.0000  0.0000  0.0000  0.0000  0.0000 </r>
        <r>  0.0000  0.0000  0.0000  0.0000  0.0000  0.0000  0.0000  0.0000  0.0000 </r>
        <r>  0.0000  0.0000  0.0000  0.0000  0.0000  0.0000  0.0000  0.0000  0.0000 </r>
        <r>  0.0346  0.0000  0.0000  0.0000  0.0000  0.0000  0.0000  0.0000  0.0000 </r>
       </set>
       <set comment="band 4">
        <r>  0.0000  0.0000  0.0000  0.0000  0.0002  0.0000  0.0000  0.0000  0.0000 </r>
        <r>  0.0000  0.0000  0.9222  0.0000  0.0000  0.0000  0.0000  0.0000  0.0000 </r>
        <r>  0.0346  0.0000  0.0000  0.0000  0.0000  0.0000  0.0000  0.0000  0.0000 </r>
        <r>  0.0000  0.0000  0.0000  0.0000  0.0000  0.0000  0.0000  0.0000  0.0000 </r>
        <r>  0.0000  0.0000  0.0000  0.0000  0.0000  0.0000  0.0000  0.0000  0.0000 </r>
       </set>
       <set comment="band 5">
        <r>  0.9806  0.0000  0.0000  0.0000  0.0000  0.0000  0.0000  0.0000  0.0000 </r>
        <r>  0.0000  0.0000  0.0000  0.0000  0.0000  0.0000  0.0000  0.0000  0.0000 </r>
        <r>  0.0000  0.0000  0.0000  0.0000  0.0000  0.0000  0.0000  0.0000  0.0000 </r>
        <r>  0.0000  0.0000  0.0000  0.0000  0.0000  0.0000  0.0000  0.0000  0.0000 </r>
        <r>  0.0000  0.0000  0.0000  0.0000  0.0000  0.0000  0.0000  0.0000  0.0000 </r>
       </set>
       <set comment="band 6">
        <r>  0.0000  0.0000  0.0000  0.0000  0.0000  0.0000  0.0000  0.0032  0.0000 </r>
        <r>  0.0000  0.0690  0.0000  0.0000  0.0000  0.0000  0.0000  0.0000  0.0000 </r>
        <r>  0.0000  0.0000  0.0000  0.0000  0.0000  0.0000  0.0000  0.0000  0.0000 </r>
        <r>  0.7511  0.0000  0.0000  0.0000  0.0000  0.0000  0.0000  0.0000  0.0000 </r>
        <r>  0.0000  0.0000  0.0000  0.0000  0.0000  0.0000  0.0000  0.0000  0.0000 </r>
       </set>
       <set comment="band 7">
        <r>  0.0000  0.0000  0.0000  0.0000  0.0000  0.0032  0.0000  0.0000  0.0000 </r>
        <r>  0.0000  0.0000  0.0000  0.0690  0.0000  0.0000  0.0000  0.0000  0.0000 </r>
        <r>  0.0000  0.0000  0.0000  0.0000  0.0000  0.0000  0.0000  0.0000  0.0000 </r>
        <r>  0.0000  0.0000  0.0000  0.0000  0.0000  0.0000  0.0000  0.0000  0.0000 </r>
        <r>  0.7511  0.0000  0.0000  0.0000  0.0000  0.0000  0.0000  0.0000  0.0000 </r>
       </set>
       <set comment="band 8">
        <r>  0.0000  0.0000  0.0000  0.0000  0.0032  0.0000  0.0000  0.0000  0.0000 </r>
        <r>  0.0000  0.0000  0.0690  0.0000  0.0000  0.0000  0.0000  0.0000  0.0000 </r>
        <r>  0.7511  0.0000  0.0000  0.0000  0.0000  0.0000  0.0000  0.0000  0.0000 </r>
        <r>  0.0000  0.0000  0.0000  0.0000  0.0000  0.0000  0.0000  0.0000  0.0000 </r>
        <r>  0.0000  0.0000  0.0000  0.0000  0.0000  0.0000  0.0000  0.0000  0.0000 </r>
       </set>
       <set comment="band 9">
        <r>  0.0000  0.0039  0.0002  0.8405  0.0000  0.0000  0.0000  0.0000  0.0000 </r>
        <r>  0.0000  0.0000  0.0000  0.0000  0.0000  0.0046  0.0000  0.0000  0.0000 </r>
        <r>  0.0000  0.0086  0.0000  0.0000  0.0000  0.0000  0.0000  0.0000  0.0000 </r>
        <r>  0.0000  0.0000  0.0086  0.0000  0.0000  0.0000  0.0000  0.0000  0.0000 </r>
        <r>  0.0000  0.0000  0.0000  0.0000  0.0000  0.0000  0.0000  0.0000  0.0000 </r>
       </set>
       <set comment="band 10">
        <r>  0.0000  0.8281  0.0128  0.0037  0.0000  0.0000  0.0000  0.0000  0.0000 </r>
        <r>  0.0000  0.0000  0.0000  0.0000  0.0001  0.0000  0.0000  0.0046  0.0000 </r>
        <r>  0.0000  0.0000  0.0000  0.0084  0.0000  0.0000  0.0000  0.0000  0.0000 </r>
        <r>  0.0000  0.0000  0.0000  0.0001  0.0000  0.0000  0.0000  0.0000  0.0000 </r>
        <r>  0.0000  0.0001  0.0084  0.0000  0.0000  0.0000  0.0000  0.0000  0.0000 </r>
       </set>
       <set comment="band 11">
        <r>  0.0000  0.0126  0.8316  0.0004  0.0000  0.0000  0.0000  0.0000  0.0000 </r>
        <r>  0.0000  0.0000  0.0000  0.0000  0.0046  0.0000  0.0000  0.0001  0.0000 </r>
        <r>  0.0000  0.0000  0.0000  0.0001  0.0000  0.0000  0.0000  0.0000  0.0000 </r>
        <r>  0.0000  0.0000  0.0000  0.0085  0.0000  0.0000  0.0000  0.0000  0.0000 </r>
        <r>  0.0000  0.0085  0.0001  0.0000  0.0000  0.0000  0.0000  0.0000  0.0000 </r>
       </set>
       <set comment="band 12">
        <r>  0.0000  0.0000  0.0000  0.0000  0.0000  0.0000  0.0000  0.0000  0.0000 </r>
        <r>  0.0000  0.0000  0.0000  0.0000  0.0000  0.0000  0.0014  0.0000  0.3099 </r>
        <r>  0.0000  0.0000  0.0016  0.0000  0.0000  0.0000  0.0000  0.0000  0.0000 </r>
        <r>  0.0000  0.2842  0.0000  0.0000  0.0000  0.0000  0.0000  0.0000  0.0000 </r>
        <r>  0.0000  0.0000  0.0000  0.2429  0.0000  0.0000  0.0000  0.0000  0.0000 </r>
       </set>
       <set comment="band 13">
        <r>  0.0000  0.0000  0.0000  0.0000  0.0000  0.0000  0.0000  0.0000  0.0000 </r>
        <r>  0.0000  0.0000  0.0000  0.0000  0.0000  0.0000  0.3099  0.0000  0.0014 </r>
        <r>  0.0000  0.0000  0.3509  0.0000  0.0000  0.0000  0.0000  0.0000  0.0000 </r>
        <r>  0.0000  0.0683  0.0000  0.0000  0.0000  0.0000  0.0000  0.0000  0.0000 </r>
        <r>  0.0000  0.0000  0.0000  0.1096  0.0000  0.0000  0.0000  0.0000  0.0000 </r>
       </set>
       <set comment="band 14">
        <r>  0.0000  0.0000  0.0000  0.0000  0.0000  0.0000  0.0000  0.0000  0.0000 </r>
        <r>  0.1648  0.0000  0.0000  0.0000  0.0000  0.0000  0.0000  0.0000  0.0000 </r>
        <r>  0.0000  0.0000  0.1780  0.0000  0.0000  0.0000  0.0000  0.0000  0.0000 </r>
        <r>  0.0000  0.1780  0.0000  0.0000  0.0000  0.0000  0.0000  0.0000  0.0000 </r>
        <r>  0.0000  0.0000  0.0000  0.1780  0.0000  0.0000  0.0000  0.0000  0.0000 </r>
       </set>
       <set comment="band 15">
        <r>  0.0000  0.0000  0.0000  0.1035  0.0000  0.0000  0.0000  0.0000  0.0000 </r>
        <r>  0.0000  0.0000  0.0000  0.0000  0.0000  0.1263  0.0000  0.0000  0.0000 </r>
        <r>  0.0000  0.2257  0.0000  0.0000  0.0000  0.0000  0.0000  0.0000  0.0000 </r>
        <r>  0.0000  0.0000  0.2257  0.0000  0.0000  0.0000  0.0000  0.0000  0.0000 </r>
        <r>  0.0000  0.0000  0.0000  0.0000  0.0000  0.0000  0.0000  0.0000  0.0000 </r>
       </set>
       <set comment="band 16">
        <r>  0.0000  0.1035  0.0000  0.0000  0.0000  0.0000  0.0000  0.0000  0.0000 </r>
        <r>  0.0000  0.0000  0.0000  0.0000  0.0000  0.0000  0.0000  0.1263  0.0000 </r>
        <r>  0.0000  0.0000  0.0000  0.2257  0.0000  0.0000  0.0000  0.0000  0.0000 </r>
        <r>  0.0000  0.0000  0.0000  0.0000  0.0000  0.0000  0.0000  0.0000  0.0000 </r>
        <r>  0.0000  0.0000  0.2257  0.0000  0.0000  0.0000  0.0000  0.0000  0.0000 </r>
       </set>
       <set comment="band 17">
        <r>  0.0000  0.0000  0.1035  0.0000  0.0000  0.0000  0.0000  0.0000  0.0000 </r>
        <r>  0.0000  0.0000  0.0000  0.0000  0.1263  0.0000  0.0000  0.0000  0.0000 </r>
        <r>  0.0000  0.0000  0.0000  0.0000  0.0000  0.0000  0.0000  0.0000  0.0000 </r>
        <r>  0.0000  0.0000  0.0000  0.2257  0.0000  0.0000  0.0000  0.0000  0.0000 </r>
        <r>  0.0000  0.2257  0.0000  0.0000  0.0000  0.0000  0.0000  0.0000  0.0000 </r>
       </set>
       <set comment="band 18">
        <r>  0.0000  0.0000  0.0000  0.0000  0.0000  0.0000  0.0000  0.0000  0.0000 </r>
        <r>  0.0000  0.0000  0.0000  0.0000  0.0000  0.0000  0.0000  0.0000  0.0000 </r>
        <r>  0.0000  0.3043  0.0000  0.0115  0.0000  0.0000  0.0000  0.0000  0.0000 </r>
        <r>  0.0000  0.0000  0.3043  0.0531  0.0000  0.0000  0.0000  0.0000  0.0000 </r>
        <r>  0.0000  0.0531  0.0115  0.0000  0.0000  0.0000  0.0000  0.0000  0.0000 </r>
       </set>
       <set comment="band 19">
        <r>  0.0000  0.0000  0.0000  0.0000  0.0000  0.0000  0.0000  0.0000  0.0000 </r>
        <r>  0.0000  0.0000  0.0000  0.0000  0.0000  0.0000  0.0000  0.0000  0.0000 </r>
        <r>  0.0000  0.0040  0.0000  0.2288  0.0000  0.0000  0.0000  0.0000  0.0000 </r>
        <r>  0.0000  0.0000  0.0040  0.1361  0.0000  0.0000  0.0000  0.0000  0.0000 </r>
        <r>  0.0000  0.1361  0.2288  0.0000  0.0000  0.0000  0.0000  0.0000  0.0000 </r>
       </set>
       <set comment="band 20">
        <r>  0.0000  0.0000  0.0000  0.0000  0.0000  0.0000  0.0000  0.0000  0.0000 </r>
        <r>  0.0000  0.0000  0.0000  0.0000  0.0000  0.0000  0.0000  0.0000  0.0000 </r>
        <r>  0.0000  0.0606  0.0000  0.1286  0.0000  0.0000  0.0000  0.0000  0.0000 </r>
        <r>  0.0000  0.0000  0.0606  0.1797  0.0000  0.0000  0.0000  0.0000  0.0000 </r>
        <r>  0.0000  0.1797  0.1286  0.0000  0.0000  0.0000  0.0000  0.0000  0.0000 </r>
       </set>
       <set comment="band 21">
        <r>  0.0000  0.0000  0.0000  0.0000  0.0001  0.4922  0.0000  0.0055  0.0000 </r>
        <r>  0.0000  0.0001  0.0000  0.0127  0.0000  0.0000  0.0000  0.0000  0.0000 </r>
        <r>  0.0000  0.0000  0.0000  0.0000  0.0000  0.0000  0.0000  0.0000  0.0000 </r>
        <r>  0.0006  0.0000  0.0000  0.0000  0.0000  0.0000  0.0000  0.0000  0.0000 </r>
        <r>  0.0542  0.0000  0.0000  0.0000  0.0000  0.0000  0.0000  0.0000  0.0000 </r>
       </set>
       <set comment="band 22">
        <r>  0.0000  0.0000  0.0000  0.0000  0.0001  0.0055  0.0000  0.4922  0.0000 </r>
        <r>  0.0000  0.0127  0.0000  0.0001  0.0000  0.0000  0.0000  0.0000  0.0000 </r>
        <r>  0.0000  0.0000  0.0000  0.0000  0.0000  0.0000  0.0000  0.0000  0.0000 </r>
        <r>  0.0542  0.0000  0.0000  0.0000  0.0000  0.0000  0.0000  0.0000  0.0000 </r>
        <r>  0.0006  0.0000  0.0000  0.0000  0.0000  0.0000  0.0000  0.0000  0.0000 </r>
       </set>
       <set comment="band 23">
        <r>  0.0000  0.0000  0.0000  0.0000  0.4976  0.0001  0.0000  0.0001  0.0000 </r>
        <r>  0.0000  0.0000  0.0129  0.0000  0.0000  0.0000  0.0000  0.0000  0.0000 </r>
        <r>  0.0548  0.0000  0.0000  0.0000  0.0000  0.0000  0.0000  0.0000  0.0000 </r>
        <r>  0.0000  0.0000  0.0000  0.0000  0.0000  0.0000  0.0000  0.0000  0.0000 </r>
        <r>  0.0000  0.0000  0.0000  0.0000  0.0000  0.0000  0.0000  0.0000  0.0000 </r>
       </set>
       <set comment="band 24">
        <r>  0.0000  0.0000  0.0000  0.0001  0.0000  0.0000  0.0000  0.0000  0.0000 </r>
        <r>  0.0000  0.0000  0.0000  0.0000  0.0415  0.5946  0.0000  0.0714  0.0000 </r>
        <r>  0.0000  0.0799  0.0000  0.0096  0.0000  0.0000  0.0000  0.0000  0.0000 </r>
        <r>  0.0000  0.0000  0.0799  0.0056  0.0000  0.0000  0.0000  0.0000  0.0000 </r>
        <r>  0.0000  0.0056  0.0096  0.0000  0.0000  0.0000  0.0000  0.0000  0.0000 </r>
       </set>
      </set>
     </set>
    </set>
   </array>
  </projected>
 </calculation>
 <structure name="finalpos" >
  <crystal>
   <varray name="basis" >
    <v>       4.23653298      -0.00000000      -0.00000000 </v>
    <v>       0.00000000       4.23653298       0.00000000 </v>
    <v>      -0.00000000       0.00000000       4.23653298 </v>
   </varray>
   <i name="volume">     76.03819066 </i>
   <varray name="rec_basis" >
    <v>       0.23604207      -0.00000000       0.00000000 </v>
    <v>       0.00000000       0.23604207      -0.00000000 </v>
    <v>       0.00000000      -0.00000000       0.23604207 </v>
   </varray>
  </crystal>
  <varray name="positions" >
   <v>       0.00000000       0.00000000       0.00000000 </v>
   <v>       0.50000000       0.50000000       0.50000000 </v>
   <v>       0.50000000       0.50000000       0.00000000 </v>
   <v>       0.50000000       0.00000000       0.50000000 </v>
   <v>       0.00000000       0.50000000       0.50000000 </v>
  </varray>
 </structure>
</modeling>
